"Materials Id","Formula","Spacegroup","Formation Energy (eV)","E Above Hull (eV)","Band Gap (eV)","Count","Nsites","Density (gm/cc)","Volume","Has Bandstructure","Crystal System",""
"mp-531820","Li4Ti7O16","Pnnm","-3.278","0.008","2.830","","54","3.431","599.009","true","orthorhombic",""
"mp-772030","LiTiO2","Imma","-2.985","0.008","0.000","","16","3.994","144.356","true","orthorhombic",""
"mp-36864","Li2TiO3","C2/c","-2.985","0.01","2.403","","12","3.419","106.616","true","monoclinic",""
"mp-772151","Li2Ti4O9","P3c1","-3.299","0.01","2.892","","30","3.725","311.484","true","trigonal",""
"mp-779455","Li7Ti5O12","C2/m","-2.984","0.01","0.000","","24","3.623","219.934","true","monoclinic",""
"mp-530141","Li7Ti16O32","I42m","-3.279","0.01","0.000","","55","3.633","606.297","true","tetragonal",""
"mp-774528","Li11Ti24O48","Cm","-3.268","0.011","0.000","","83","3.64","909.363","true","monoclinic",""
"mp-772055","Li6Ti2O7","C2/c","-2.818","0.012","2.952","","30","2.954","280.327","true","monoclinic",""
"mp-530600","Li14Ti21O48","Cm","-3.237","0.012","0.000","","83","3.445","901.521","true","monoclinic",""
"mp-772108","LiTi11O20","P1","-3.388","0.014","0.000","","64","3.953","716.943","false","triclinic",""
"mp-760017","Li2TiO3","P1","-2.981","0.014","1.575","","18","3.413","160.186","true","triclinic",""
"mp-759713","Li8Ti15O32","R3m","-3.261","0.014","0.000","","55","3.534","604.105","true","trigonal",""
"mp-685797","Li6Ti9O20","C2/m","-3.22","0.018","0.029","","140","3.472","1516.092","false","monoclinic",""
"mp-770456","Li6Ti2O7","C2","-2.811","0.018","2.377","","15","2.968","139.514","true","monoclinic",""
"mp-685809","Li5Ti12O24","P3m1","-3.279","0.019","0.003","","123","3.619","1367.154","false","trigonal",""
"mp-758044","Li5Ti8O16","P1","-3.165","0.021","0.000","","29","3.879","288.378","true","triclinic",""
"mp-531914","Li3Ti8O16","Pmmn","-3.296","0.022","0.000","","54","3.615","606.024","true","orthorhombic",""
"mp-25417","LiTiO2","R3m","-2.97","0.022","0.000","","4","3.905","36.917","true","trigonal",""
"mp-756645","Li5Ti3O8","R3m","-2.972","0.023","0.000","","16","3.454","147.272","true","trigonal",""
"mp-772925","Li4Ti5O12","P1","-3.193","0.026","3.015","","42","3.286","463.974","true","triclinic",""
"mp-756294","Li2Ti2O5","Ccc2","-3.142","0.028","3.743","","18","2.457","256.316","true","orthorhombic",""
"mp-6944","LiTiO2","Fd3m","-2.965","0.028","0.000","","16","3.906","147.612","true","cubic",""
"mp-772090","Li4Ti9O20","I41/a","-3.3","0.028","3.125","","66","3.299","783.697","true","tetragonal",""
"mp-754937","LiTi3O6","Cm","-3.308","0.03","0.000","","10","3.882","105.455","true","monoclinic",""
"mp-764648","LiTiO2","P63/mmc","-2.963","0.03","0.000","","8","3.933","73.31","true","hexagonal",""
"mp-34052","Li7Ti7O16","R3m","-3.088","0.03","0.000","","30","3.555","298.813","true","trigonal",""
"mp-867613","LiTi4O8","P1","-3.349","0.031","0.000","","39","3.88","419.038","true","triclinic",""
"mp-766543","Li7Ti11O24","Pm","-3.211","0.032","0.000","","42","3.627","439.114","true","monoclinic",""
"mp-762351","Li4Ti7O16","Cm","-3.254","0.032","2.452","","27","3.54","290.285","true","monoclinic",""
"mp-977334","LiTi2O4","P21/m","-3.228","0.032","0.099","","28","3.851","287.495","false","monoclinic",""
"mp-676365","Li2TiO3","C2/c","-2.961","0.034","0.000","","48","3.318","439.405","true","monoclinic",""
"mp-758089","Li2Ti3O6","Fddd","-3.128","0.035","0.000","","22","3.985","211.222","true","orthorhombic",""
"mp-757527","LiTi6O12","Pc","-3.388","0.035","0.000","","38","3.869","417.332","true","monoclinic",""
"mp-765985","Li5Ti12O24","Pm","-3.263","0.035","0.000","","41","3.745","440.33","true","monoclinic",""
"mp-772049","Li2Ti2O5","Pbcn","-3.134","0.036","3.760","","36","2.528","498.15","true","orthorhombic",""
"mp-766834","Li7Ti16O32","Cm","-3.252","0.037","0.000","","55","3.749","587.522","true","monoclinic",""
"mp-752891","LiTi3O6","Fddd","-3.299","0.038","0.000","","20","3.779","216.666","true","orthorhombic",""
"mp-766548","Li4Ti11O24","P1","-3.318","0.04","2.524","","39","3.583","434.892","true","triclinic",""
"mp-776170","LiTi2O4","P63mc","-3.22","0.04","0.000","","28","3.762","294.287","true","hexagonal",""
"mp-760378","LiTi2O4","Pmc21","-3.219","0.042","0.000","","14","3.752","147.548","true","orthorhombic",""
"mp-752879","Li3Ti4O8","R3m","-3.073","0.045","0.000","","15","3.764","150.121","true","trigonal",""
"mp-761891","Li3Ti4O8","C2/m","-3.072","0.046","0.000","","15","3.957","142.783","true","monoclinic",""
"mp-759560","LiTi6O12","P21","-3.377","0.046","0.000","","38","3.728","433.116","true","monoclinic",""
"mp-756035","LiTi4O8","Pm","-3.333","0.047","0.000","","13","3.733","145.199","true","monoclinic",""
"mp-38468","Li7Ti12O24","Pm","-3.163","0.048","0.000","","43","3.977","420.452","true","monoclinic",""
"mp-760093","LiTi8O16","Cmc21","-3.397","0.049","0.000","","50","3.728","575.418","true","orthorhombic",""
"mp-675692","LiTi2O4","C2","-3.211","0.049","0.000","","21","3.889","213.482","true","monoclinic",""
"mp-756560","Li2Ti3O7","C2/c","-3.207","0.05","2.485","","24","3.334","268.41","true","monoclinic",""
"mp-755000","LiTiO2","P63mc","-2.939","0.053","0.000","","8","3.86","74.695","true","hexagonal",""
"mp-772972","Li2Ti2O5","P21/c","-3.114","0.056","3.718","","36","2.541","495.551","true","monoclinic",""
"mp-759812","Li4Ti11O24","C2/m","-3.3","0.058","2.296","","39","3.446","452.095","true","monoclinic",""
"mp-755266","Li4Ti3O8","C2/m","-3.041","0.058","2.206","","15","3.361","147.882","false","monoclinic",""
"mp-755797","LiTi8O13","R3","-3.24","0.06","0.000","","22","4.041","245.706","true","trigonal",""
"mp-772150","Li2Ti13O22","Cmce","-3.254","0.06","0.000","","74","3.996","821.332","true","orthorhombic",""
"mp-770700","Li2Ti3O7","P21/m","-3.196","0.061","2.867","","24","3.264","274.209","true","monoclinic",""
"mp-753131","Li3Ti4O8","C2/m","-3.056","0.061","0.000","","15","3.984","141.823","true","monoclinic",""
"mp-755615","Li3Ti4O8","Pm","-3.056","0.062","0.000","","15","3.771","149.849","true","monoclinic",""
"mp-777167","LiTiO2","P1","-2.929","0.064","0.000","","64","3.647","632.317","false","triclinic",""
"mp-767633","Li4Ti9O20","P1","-3.263","0.065","1.842","","66","3.42","756.078","true","triclinic",""
"mvc-16724","LiTi2O4","Imma","-3.192","0.068","0.000","","14","3.722","148.735","false","orthorhombic",""
"mp-754801","Li3Ti6O13","C2/m","-3.227","0.069","0.000","","22","3.466","247.235","true","monoclinic",""
"mp-760539","Li2Ti3O6","C2/m","-3.094","0.069","0.000","","11","3.741","112.508","true","monoclinic",""
"mp-756565","Li2Ti7O15","C2/m","-3.313","0.074","1.483","","24","3.798","257.528","true","monoclinic",""
"mp-767194","Li4Ti11O24","Cm","-3.283","0.075","2.313","","39","3.442","452.669","false","monoclinic",""
"mp-867744","LiTi3O4","Cmmm","-2.86","0.075","0.000","","8","4.744","75.09","true","orthorhombic",""
"mp-760594","LiTi2O4","Imma","-3.184","0.077","0.000","","14","3.691","149.961","true","orthorhombic",""
"mp-770399","Li6Ti2O7","P42nm","-2.75","0.08","2.485","","30","2.746","301.609","true","tetragonal",""
"mp-762319","Li4TiO4","Pc","-2.639","0.08","3.846","","72","2.268","817.842","true","monoclinic",""
"mp-772260","Li10Ti4O13","P1","-2.818","0.085","3.959","","54","2.413","645.262","true","triclinic",""
"mp-759678","Li4Ti15O32","R3m","-3.309","0.086","1.944","","51","3.483","599.644","true","trigonal",""
"mp-772190","Li6Ti2O7","P21","-2.743","0.086","4.192","","60","2.302","719.404","false","monoclinic",""
"mp-772920","Li8Ti2O7","P21/c","-2.439","0.089","0.766","","68","2.474","706.802","true","monoclinic",""
"mp-752942","LiTi2O4","P21/m","-3.171","0.09","0.000","","14","3.386","163.491","true","monoclinic",""
"mp-758836","Li4Ti3O8","R3m","-3.003","0.096","1.745","","15","3.428","145.029","true","trigonal",""
"mp-780233","LiTi2O4","P1","-3.162","0.098","0.028","","49","3.427","565.243","false","triclinic",""
"mp-752546","LiTi4O8","R3m","-3.28","0.1","0.000","","13","3.612","150.062","true","trigonal",""
"mp-677305","Li17Ti20O40","P2/m","-2.965","0.101","0.000","","77","4.012","710.006","true","monoclinic",""
"mp-760832","LiTi2O4","P1","-3.16","0.101","0.000","","63","3.454","721.207","false","triclinic",""
"mp-766828","Li4Ti15O32","R3m","-3.294","0.101","2.006","","51","3.475","600.973","true","trigonal",""
"mp-558256","Li3Ti4O8","P2","-2.99","0.128","0.000","","15","3.955","142.865","true","monoclinic",""
"mp-675334","LiTi2O4","P2/m","-3.091","0.169","0.000","","7","4.081","67.82","true","monoclinic",""
"mp-772392","LiTiVO4","Imma","-2.944","0","0.753","67","14","3.683","153.084","true","orthorhombic",""
"mp-775161","Li2Ti3VO8","P4332","-3.123","0","0.553","","56","3.652","611.915","true","cubic",""
"mp-775564","Li2TiV3O8","P212121","-2.731","0.006","1.232","","56","3.758","605.515","true","orthorhombic",""
"mp-764774","LiTi2V3O12","P21/c","-2.762","0.007","2.303","","72","2.853","1041.732","true","monoclinic",""
"mp-775049","Li5Ti2V5O12","C2","-2.609","0.007","0.177","","24","4.159","230.438","true","monoclinic",""
"mp-763978","Li5Ti2V3O10","P1","-2.707","0.01","0.298","","20","3.907","188.369","true","triclinic",""
"mp-764005","Li4TiV3O8","C2/m","-2.619","0.011","0.017","","16","3.893","152.049","true","monoclinic",""
"mp-771002","Li2TiVO4","P1","-2.76","0.014","0.481","","24","3.84","229.212","true","triclinic",""
"mp-771862","Li2Ti3VO8","R3m","-3.108","0.016","0.000","","14","3.656","152.782","true","trigonal",""
"mp-762150","LiTi2V3O12","P1","-2.752","0.017","2.336","","72","2.895","1026.814","false","triclinic",""
"mp-777694","Li4Ti3V5O16","P1","-2.823","0.017","1.077","","28","3.839","295.05","true","triclinic",""
"mp-774128","Li2TiV3O8","R3m","-2.716","0.02","0.006","","14","3.766","151.041","true","trigonal",""
"mp-774230","Li4Ti5V3O16","Cm","-3.011","0.022","0.630","","28","3.789","296.256","true","monoclinic",""
"mp-778325","Li2TiV3O8","Cc","-2.713","0.023","1.208","","28","3.899","291.759","true","monoclinic",""
"mp-763676","Li4Ti2V5O12","P21","-2.642","0.023","0.269","","46","4.154","455.903","true","monoclinic",""
"mp-763993","Li2TiVO4","P1","-2.75","0.025","0.000","","24","3.852","228.473","true","triclinic",""
"mp-771615","Li2TiVO4","Imma","-2.749","0.025","0.000","","16","3.855","152.208","true","orthorhombic",""
"mp-763982","Li3TiV2O6","C2/m","-2.651","0.027","0.000","","12","3.876","114.212","true","monoclinic",""
"mp-770760","Li2TiVO5","P4/nmm","-2.819","0.03","2.283","","18","3.077","207.944","true","tetragonal",""
"mp-770960","Li3TiV3O8","R3m","-2.673","0.032","1.581","","15","3.786","153.293","true","trigonal",""
"mp-762546","Li4Ti2V3O10","P1","-2.746","0.035","0.630","","38","3.826","378.699","true","triclinic",""
"mp-769874","Li2TiVO4","I4m2","-2.739","0.036","0.000","","8","3.958","74.131","true","tetragonal",""
"mp-771549","Li2Ti3VO8","P63mc","-3.087","0.037","0.257","","28","3.716","300.662","true","hexagonal",""
"mp-775345","LiTi2VO6","P21/c","-3.076","0.04","1.791","","40","3.396","488.218","true","monoclinic",""
"mp-763639","Li3Ti2V3O10","P1","-2.804","0.043","1.647","","18","3.744","190.445","true","triclinic",""
"mp-763708","Li2TiV2O6","C2/m","-2.742","0.043","1.273","","11","3.74","115.271","true","monoclinic",""
"mp-764015","Li4Ti3VO8","R3m","-2.871","0.044","0.000","","16","3.859","150.729","true","trigonal",""
"mp-765678","Li3TiV3O8","P63mc","-2.658","0.048","1.509","","30","3.962","293.002","true","hexagonal",""
"mp-773465","Li4TiV3O10","P4m2","-2.636","0.049","1.239","","18","3.109","207.473","true","tetragonal",""
"mp-775104","Li3TiV4O8","C2/m","-2.486","0.051","0.000","","16","4.205","158.132","true","monoclinic",""
"mp-769573","LiTiVO4","P1","-2.888","0.056","1.475","","21","3.623","233.377","true","triclinic",""
"mp-763577","Li3Ti2V2O8","C2/m","-2.803","0.057","0.000","","15","3.776","152.35","true","monoclinic",""
"mp-763632","Li4Ti3V3O12","P1","-2.834","0.057","0.000","","22","3.748","228.708","false","triclinic",""
"mp-763679","Li2Ti2VO6","P1","-2.937","0.059","0.278","","33","3.699","345.495","false","triclinic",""
"mp-762821","Li3Ti3VO8","C2/m","-2.952","0.06","0.000","","15","3.737","152.581","true","monoclinic",""
"mp-763712","LiTi2VO6","C2/m","-3.056","0.061","1.565","","10","3.667","113.018","true","monoclinic",""
"mp-763671","Li2Ti2V3O10","P1","-2.813","0.062","0.590","","17","3.675","190.881","true","triclinic",""
"mp-767168","Li3TiV3O8","Cm","-2.637","0.068","0.929","","15","3.629","159.916","true","monoclinic",""
"mp-776619","Li2TiV3O8","Cm","-2.667","0.069","0.609","","14","3.664","155.238","true","monoclinic",""
"mp-771609","LiTiV3O10","C2","-2.548","0.07","1.776","","15","2.981","204.793","true","monoclinic",""
"mp-774083","Li2Ti2VO6","Cmce","-2.923","0.074","1.069","","22","3.512","242.582","true","orthorhombic",""
"mp-850468","LiTiV2O6","Cm","-2.747","0.074","1.393","","10","3.741","112.162","true","monoclinic",""
"mp-768019","LiTi2V3O10","P1","-2.816","0.075","1.448","","16","3.598","191.771","true","triclinic",""
"mp-765247","Li4Ti5VO12","P1","-3.012","0.079","0.000","","66","3.536","718.46","false","triclinic",""
"mp-769560","Li2TiV3O8","C2/m","-2.657","0.08","0.733","","14","3.692","154.062","true","monoclinic",""
"mp-769487","Li4Ti4V5O18","Pbam","-2.825","0.081","0.127","","62","3.666","690.315","false","orthorhombic",""
"mp-764914","Li3Ti4VO8","C2/m","-2.841","0.081","0.000","","16","4.374","148.525","true","monoclinic",""
"mp-771857","LiTiVO5","Cmme","-2.762","0.084","1.819","","16","3.02","204.284","true","orthorhombic",""
"mp-763961","Li5TiV3O8","Cm","-2.465","0.084","0.000","","17","3.585","168.311","true","monoclinic",""
"mp-769497","Li4TiV8O18","P1","-2.531","0.088","0.011","","62","3.764","680.409","false","triclinic",""
"mp-765164","Li3Ti2V3O12","P21/c","-2.719","0.088","0.933","","80","2.978","1028.963","false","monoclinic",""
"mp-769491","Li4Ti2V7O18","Pmc21","-2.628","0.089","0.163","","62","3.754","679.412","false","orthorhombic",""
"mp-775618","Li2TiV5O12","C2","-2.58","0.089","0.660","","20","3.535","238.832","true","monoclinic",""
"mp-868760","Li3Ti2VO6","C2/m","-2.78","0.091","0.000","","12","3.905","112.055","true","monoclinic",""
"mp-762484","Li2Ti3VO8","C2/m","-3.032","0.091","0.263","","14","3.612","154.669","false","monoclinic",""
"mp-771682","Li2TiV2O6","Cmce","-2.692","0.094","0.961","","22","3.596","239.812","true","orthorhombic",""
"mp-762531","Li2Ti2V5O12","P21","-2.682","0.094","0.855","","42","4.05","456.184","true","monoclinic",""
"mp-763640","Li2Ti3V3O12","P1","-2.877","0.095","0.974","","20","3.599","231.755","true","triclinic",""
"mp-768011","LiTi3VO8","R3m","-3.113","0.096","1.542","","13","3.488","156.859","true","trigonal",""
"mp-763509","LiTiVO4","Imma","-2.848","0.096","0.312","","14","3.741","150.689","true","orthorhombic",""
"mp-765283","Li5TiV3O8","P212121","-2.452","0.097","0.628","","68","3.778","638.952","true","orthorhombic",""
"mp-763707","Li4Ti3VO8","Pm","-2.813","0.102","0.000","","16","3.336","174.381","true","monoclinic",""
"mp-771445","Li4Ti5VO12","C2/m","-2.988","0.103","0.000","","22","3.518","240.734","true","monoclinic",""
"mp-776628","Li4TiV5O12","C2/m","-2.549","0.103","0.247","","22","3.658","237.086","true","monoclinic",""
"mp-782720","LiTiV3O8","P1","-2.643","0.103","0.869","","13","3.578","155.751","true","triclinic",""
"mp-768022","LiTi4VO8","P1","-3.032","0.106","0.000","","14","4.275","146.558","true","triclinic",""
"mp-768018","Li2Ti4VO8","C2/m","-2.933","0.11","0.000","","15","4.34","147.032","true","monoclinic",""
"mp-759849","Li2Ti6Zn3O16","P21","-3.033","0","2.829","4","54","4.122","606.872","true","monoclinic",""
"mp-774797","Li2Ti3ZnO8","P213","-3.07","0","3.127","","56","3.867","602.692","true","cubic",""
"mp-773039","Li2Ti6Zn3O16","P21","-3.032","0.001","2.849","","54","4.132","605.53","true","monoclinic",""
"mp-773081","Li3Ti6Zn3O16","P21","-2.984","0.013","0.000","","56","4.152","608.097","true","monoclinic",""
"mp-762378","Li2V3CoO8","R3","-2.346","0.002","1.622","33","56","3.948","594.981","true","trigonal",""
"mp-768046","LiVCoO4","Imma","-2.152","0.005","1.591","","14","4.114","145.981","true","orthorhombic",""
"mp-761752","LiVCoO4","Cmcm","-2.144","0.013","1.937","","14","3.837","156.491","true","orthorhombic",""
"mp-765432","Li2V3CoO8","R3m","-2.325","0.024","0.000","","14","3.958","148.362","true","trigonal",""
"mp-780748","LiVCoO4","Pnma","-2.132","0.026","2.193","","28","3.785","317.274","true","orthorhombic",""
"mp-761722","LiVCoO4","P4322","-2.123","0.035","1.466","","28","4.066","295.348","true","tetragonal",""
"mp-771711","Li4V3CoO8","C2/m","-2.326","0.041","0.847","","16","4.067","150.057","true","monoclinic",""
"mp-775098","Li2VCo3O8","R3m","-1.834","0.044","0.241","","14","4.598","133.481","true","trigonal",""
"mp-770971","Li2VCoO4","P1","-2.173","0.05","1.437","","24","4.222","221.558","true","triclinic",""
"mp-773359","Li2VCoO4","Imma","-2.173","0.051","1.338","","16","4.194","148.687","true","orthorhombic",""
"mp-776910","Li3V3(CoO6)2","P21/c","-2.114","0.051","1.228","","80","3.206","1001.724","false","monoclinic",""
"mp-774950","Li2V3CoO8","P1","-2.294","0.054","0.787","","56","4.068","577.433","true","triclinic",""
"mp-776751","Li4V5Co3O16","Cm","-2.192","0.061","1.287","","28","4.085","290.761","true","monoclinic",""
"mp-774094","Li5V5(CoO6)2","C2","-2.257","0.061","1.329","","24","4.38","227.184","true","monoclinic",""
"mp-761729","Li2VCo3O8","P63mc","-1.811","0.067","0.382","","28","4.763","257.717","true","hexagonal",""
"mp-773287","Li3V2CoO6","C2/m","-2.26","0.067","0.000","","12","4.126","111.73","true","monoclinic",""
"mp-761801","LiV2CoO6","P1","-2.183","0.074","1.027","","10","4.322","101.329","false","triclinic",""
"mp-773270","LiV3CoO10","C2","-2.041","0.076","0.565","","15","3.119","201.621","true","monoclinic",""
"mp-766824","Li4VCo3O8","P1","-1.959","0.076","1.410","","16","3.448","184.7","true","triclinic",""
"mp-765546","Li2V3CoO8","R3m","-2.27","0.078","0.000","","14","4.139","141.885","true","trigonal",""
"mp-777304","Li2V3CoO8","Cm","-2.269","0.08","0.842","","14","3.863","152.009","true","monoclinic",""
"mp-771433","Li5V2Co3O10","P1","-2.077","0.084","0.349","","20","4.254","184.799","false","triclinic",""
"mp-771557","Li5V2Co5O12","C2","-1.938","0.085","0.476","","24","4.658","222.165","true","monoclinic",""
"mp-764669","Li4V3CoO10","C2","-2.283","0.088","0.000","","18","3.221","205.948","true","monoclinic",""
"mp-765399","Li2VCoO5","P4/nmm","-2.082","0.089","0.629","","18","3.364","201.166","true","tetragonal",""
"mp-771101","Li3V(CoO2)4","C2/m","-1.832","0.09","0.000","","16","4.897","147.673","true","monoclinic",""
"mp-766109","Li11V12(CoO8)4","C2","-2.282","0.092","1.022","","59","4.08","584.127","true","monoclinic",""
"mp-776322","Li2V5CoO12","C2","-2.298","0.092","0.000","","20","3.463","249.103","true","monoclinic",""
"mp-761605","Li5V3(CoO5)2","P1","-2.189","0.096","0.000","","20","4.085","189.167","true","triclinic",""
"mp-764446","LiV3(CoO6)2","P21/c","-1.855","0.098","0.716","","72","3.378","923.361","false","monoclinic",""
"mp-773242","Li3V3CoO8","R3","-2.282","0.1","0.801","","15","4.132","144.912","true","trigonal",""
"mp-768052","LiVCoO4","Imma","-2.045","0.112","0.000","","14","4.132","145.331","true","orthorhombic",""
"mp-773393","Li2V2CoO6","Cmce","-2.138","0.173","1.143","","22","3.836","234.37","true","orthorhombic",""
"mp-776143","Li4V3CrO8","C2/m","-2.469","0","0.000","75","16","3.994","149.916","true","monoclinic",""
"mp-776615","Li4VCr3O8","P2/m","-2.424","0","1.826","","16","4.06","148.345","true","monoclinic",""
"mp-776618","Li4VCr3O8","C2/m","-2.423","0","1.919","","16","4.059","148.388","true","monoclinic",""
"mp-853146","Li4VCr3O8","R3m","-2.423","0.001","0.000","","16","4.04","149.059","true","trigonal",""
"mp-769609","Li4VCr3O8","P1","-2.418","0.005","1.559","","32","4.041","298.086","true","triclinic",""
"mp-770041","Li3VCr2O6","C2/m","-2.426","0.005","1.874","","12","4.039","111.722","true","monoclinic",""