"Materials Id","Formula","Spacegroup","Formation Energy (eV)","E Above Hull (eV)","Band Gap (eV)","Count","Nsites","Density (gm/cc)","Volume","Has Bandstructure","Crystal System",""
"mp-779232","Li32Mn3Cr13O48","P1","-2.229","0.017","0.962","","96","3.595","845.572","false","triclinic",""
"mp-778893","Li32Mn3Cr13O48","P1","-2.229","0.017","1.022","","96","3.611","842.039","false","triclinic",""
"mp-778776","Li32Mn3Cr13O48","P1","-2.229","0.018","1.069","","96","3.595","845.707","false","triclinic",""
"mp-778415","Li32Mn3Cr13O48","P1","-2.229","0.018","1.046","","96","3.599","844.713","false","triclinic",""
"mp-779397","Li32Mn3Cr13O48","P1","-2.228","0.018","1.011","","96","3.61","842.164","false","triclinic",""
"mp-778896","Li32Mn3Cr13O48","P1","-2.228","0.018","1.037","","96","3.607","842.958","false","triclinic",""
"mp-779375","Li32Mn3Cr13O48","P1","-2.228","0.018","1.018","","96","3.611","842.005","false","triclinic",""
"mp-779798","Li32Mn5Cr11O48","C2","-2.219","0.018","0.762","","96","3.632","839.707","true","monoclinic",""
"mp-771517","Li4Mn3Cr5O16","Cm","-2.203","0.018","0.240","","28","4.201","280.089","true","monoclinic",""
"mp-779377","Li32Mn3Cr13O48","P1","-2.228","0.018","0.996","","96","3.622","839.415","false","triclinic",""
"mp-770504","Li24MnCr11O36","P1","-2.236","0.018","0.851","","72","3.591","633.191","true","triclinic",""
"mp-779398","Li32Mn3Cr13O48","P1","-2.228","0.018","1.047","","96","3.595","845.756","false","triclinic",""
"mp-779180","Li32Mn3Cr13O48","P1","-2.227","0.019","1.068","","96","3.597","845.308","false","triclinic",""
"mp-770667","Li24MnCr11O36","C2","-2.235","0.019","0.002","","72","3.569","637.237","true","monoclinic",""
"mp-770973","Li24MnCr11O36","C2","-2.235","0.019","1.002","","72","3.573","636.455","true","monoclinic",""
"mp-770985","Li24MnCr11O36","P1","-2.233","0.021","0.043","","72","3.582","634.769","false","triclinic",""
"mp-775291","Li2Mn2Cr3O12","Pbcn","-1.975","0.022","1.733","","76","2.801","1118.532","false","orthorhombic",""
"mp-773308","Li2MnCrO4","I4m2","-2.254","0.025","0.000","","8","4.176","73.496","true","tetragonal",""
"mp-763907","Li5Mn3Cr2O10","P1","-2.229","0.026","0.911","","20","4.094","187.997","true","triclinic",""
"mp-771116","Li3Mn4CrO8","C2/m","-2.151","0.028","0.000","","16","4.35","160.536","true","monoclinic",""
"mp-775697","Li3Mn2CrO6","C2/m","-2.208","0.03","0.218","","12","4.083","113.336","true","monoclinic",""
"mp-771509","Li5Mn5Cr2O12","C2","-2.181","0.032","0.000","","24","4.344","231.43","true","monoclinic",""
"mp-780214","Li4Mn3Cr3O12","P2/m","-2.206","0.032","0.569","","22","4.035","222.432","true","monoclinic",""
"mp-772402","Li4Mn5Cr3O16","Cm","-2.14","0.032","0.000","","28","4.186","283.431","true","monoclinic",""
"mp-850919","Li2MnCr2O6","C2/m","-2.236","0.034","0.615","","33","4.02","333.08","true","monoclinic",""
"mp-780588","Li3MnCr3O8","C2/m","-2.265","0.04","0.504","","15","4.068","146.85","true","monoclinic",""
"mp-853217","Li9Mn7Cr12O48","P1","-1.938","0.048","0.264","","76","3.279","931.421","false","triclinic",""
"mp-761312","Li2Mn3CrO8","P63mc","-2.099","0.048","0.000","","28","4.205","283.265","true","hexagonal",""
"mp-851000","Li9Mn7Cr12O48","P1","-1.936","0.05","0.073","","76","3.285","929.597","false","triclinic",""
"mp-775608","Li2MnCr3O8","P63mc","-2.193","0.051","0.086","","28","4.173","280.776","true","hexagonal",""
"mp-780544","LiMn3CrO8","C2/m","-1.98","0.052","0.728","","13","3.867","151.051","true","monoclinic",""
"mp-850972","Li4Mn5Cr2O12","P21","-2.161","0.052","0.691","","46","4.246","468.032","true","monoclinic",""
"mp-851001","Li3Mn2Cr2O8","P1","-2.201","0.052","0.015","","60","4.025","598.461","false","triclinic",""
"mp-781699","Li2MnCr3O8","C2/m","-2.191","0.054","0.580","","14","3.95","148.298","true","monoclinic",""
"mp-780751","Li3Mn2Cr2O8","P1","-2.199","0.054","0.129","","15","4.064","148.186","true","triclinic",""
"mp-765322","Li5MnCr3O8","P63mc","-2.239","0.056","2.096","","34","3.996","310.511","true","hexagonal",""
"mp-764183","Li5MnCr3O8","P43212","-2.238","0.057","2.258","","68","3.922","632.819","true","tetragonal",""
"mp-850956","Li2Mn3Cr3O12","P2/m","-2.065","0.067","0.093","","20","3.907","223.822","true","monoclinic",""
"mp-781676","Li4Mn3Cr2O10","P1","-2.167","0.073","0.215","","19","4.068","186.382","false","triclinic",""
"mp-780542","Li2Mn3CrO8","P1","-2.074","0.074","0.000","","14","4.005","148.734","true","triclinic",""
"mp-780881","Li4Mn3Cr3O12","F222","-2.164","0.075","0.000","","22","4.177","214.912","true","orthorhombic",""
"mp-850948","LiMnCr2O6","Cm","-2.086","0.075","0.252","","10","3.952","110.039","true","monoclinic",""
"mp-780849","LiMn2Cr2O8","P1","-2.011","0.077","0.607","","52","4.016","576.966","true","triclinic",""
"mp-765030","Li10Mn3Cr5O16","P1","-2.188","0.079","0.258","","34","4.009","310.748","false","triclinic",""
"mp-850947","Li3Mn5Cr2O12","C2","-2.117","0.079","0.054","","22","4.266","230.264","true","monoclinic",""
"mp-780543","Li2MnCr3O8","P1","-2.161","0.083","0.529","","14","3.956","148.098","true","triclinic",""
"mp-765000","Li5MnCr3O8","R3m","-2.212","0.083","1.420","","17","3.918","158.346","true","trigonal",""
"mp-775056","Li2MnCr2O6","Cmce","-2.187","0.083","1.252","","22","3.934","226.935","true","orthorhombic",""
"mp-764036","Li3Mn3CrO8","Cc","-2.11","0.085","0.414","","30","4.235","286.706","true","monoclinic",""
"mp-771221","Li4MnCr5O12","C2/m","-2.214","0.086","0.073","","22","3.866","229.658","true","monoclinic",""
"mp-775196","Li2MnCr3O8","R3m","-2.157","0.087","0.276","","14","3.957","148.052","true","trigonal",""
"mp-775059","Li2Mn2CrO6","Cmce","-2.109","0.092","0.000","","22","3.85","234.398","true","orthorhombic",""
"mp-769831","Li3MnCr4O8","C2/m","-2.218","0.092","0.629","","16","4.372","156.401","true","monoclinic",""
"mp-765119","Li8Mn3CrO12","P1","-2.111","0.093","0.913","","24","3.732","206.622","true","triclinic",""
"mp-780798","LiMn2Cr2O8","P1","-1.992","0.096","0.660","","13","4.043","143.25","true","triclinic",""
"mp-766919","Li8MnCr3O12","P1","-2.142","0.099","0.809","","24","3.664","207.751","true","triclinic",""
"mp-780190","Li2Cr3(NiO6)2","Pbcn","-1.693","0.004","2.470","33","76","3.059","1040.609","true","orthorhombic",""
"mp-769743","Li4Cr3NiO8","P2/m","-2.151","0.013","0.437","","16","4.268","144.114","true","monoclinic",""
"mp-770046","Li4Cr3NiO8","C2/m","-2.15","0.014","0.323","","16","4.228","145.482","true","monoclinic",""
"mp-769902","Li4Cr3NiO8","R3m","-2.149","0.015","0.000","","16","4.231","145.383","true","trigonal",""
"mp-769719","Li4Cr3NiO8","P1","-2.149","0.015","0.000","","32","4.21","292.233","false","triclinic",""
"mp-769999","Li4Cr3NiO8","P1","-2.146","0.017","0.000","","32","4.233","290.625","false","triclinic",""
"mp-770249","Li4Cr3NiO8","P1","-2.146","0.018","0.000","","32","4.252","289.318","true","triclinic",""
"mp-770297","Li4Cr3NiO8","P1","-2.146","0.018","0.000","","32","4.221","291.483","true","triclinic",""
"mp-770031","Li4Cr3NiO8","C2/m","-2.145","0.019","0.000","","16","4.226","145.558","true","monoclinic",""
"mp-770039","Li4Cr3NiO8","P1","-2.145","0.019","0.000","","16","4.255","144.573","true","triclinic",""
"mp-770231","Li4Cr3NiO8","P1","-2.144","0.02","0.000","","32","4.237","290.367","true","triclinic",""
"mp-771842","Li3Cr2NiO6","C2/m","-2.063","0.022","0.000","","12","4.26","108.947","true","monoclinic",""
"mp-762507","Li2CrNiO4","Imma","-1.895","0.033","0.000","","16","4.436","141.189","true","orthorhombic",""
"mp-771459","Li4CrNi3O8","R3m","-1.639","0.033","0.000","","16","4.536","140.519","true","trigonal",""
"mp-772253","Li3Cr(NiO2)4","C2/m","-1.528","0.034","0.000","","16","5.036","143.623","true","monoclinic",""
"mp-772329","Li2Cr3NiO8","R3m","-1.984","0.042","0.421","","14","4.083","145.015","true","trigonal",""
"mp-771619","Li5Cr2Ni3O10","P1","-1.791","0.044","0.000","","20","4.441","177.523","true","triclinic",""
"mp-764140","Li5Cr3NiO8","P4332","-2.123","0.046","3.017","","68","4.105","610.629","true","cubic",""
"mp-774237","Li5Cr2Ni5O12","C2","-1.637","0.048","0.000","","24","4.831","214.533","true","monoclinic",""
"mp-770877","Li3Cr3NiO8","R3m","-2.057","0.051","0.350","","15","4.186","144.192","true","trigonal",""
"mp-764311","Li5Cr3NiO8","Cmc21","-2.113","0.055","2.959","","34","4.12","304.171","true","orthorhombic",""
"mp-773274","Li3Cr(NiO3)2","C2/m","-1.714","0.057","0.000","","12","4.507","105.444","true","monoclinic",""
"mp-775440","Li2Cr3NiO8","P1","-1.965","0.061","0.602","","56","4.076","581.051","true","triclinic",""
"mp-770227","Li3Cr3NiO8","P2/m","-2.047","0.061","0.057","","60","4.172","578.732","false","monoclinic",""
"mp-774301","Li3Cr3(NiO6)2","P21/c","-1.73","0.063","0.872","","80","3.216","1004.032","false","monoclinic",""
"mp-773779","Li2Cr3NiO8","P63mc","-1.959","0.067","0.711","","28","4.178","283.444","true","hexagonal",""
"mp-775015","Li2Cr3NiO8","R3m","-1.956","0.07","0.727","","14","4.114","143.918","true","trigonal",""
"mp-773255","Li2CrNiO4","I4m2","-1.845","0.083","0.000","","8","4.467","70.094","true","tetragonal",""
"mp-851026","Li3CrNi3O8","C2/m","-1.514","0.084","0.000","","15","4.438","141.036","true","monoclinic",""
"mp-780743","Li3Cr2(NiO4)2","C2/m","-1.787","0.086","0.000","","15","4.316","142.417","true","monoclinic",""
"mp-770245","LiCrNiO4","Imma","-1.669","0.095","0.000","","14","4.268","141.337","true","orthorhombic",""
"mp-780901","Li4Cr2Ni5O12","P21","-1.541","0.097","0.087","","46","4.837","423.776","true","monoclinic",""
"mp-853219","Li2Cr2NiO6","C2/m","-1.894","0.108","0.000","","33","4.149","327.276","true","monoclinic",""
"mp-18793","LiCrO2","R3m","-2.399","0","3.000","104","4","4.069","37.113","false","trigonal",""
"mp-24920","Li2CrO4","R3","-2.107","0","2.602","","42","2.328","555.79","true","trigonal",""
"mp-770632","Li3CrO4","Pmn21","-2.191","0","1.124","","16","2.592","175.301","true","orthorhombic",""
"mp-772487","LiCrO2","Fd3m","-2.398","0.001","3.059","","16","4.115","146.79","true","cubic",""
"mp-566811","LiCr3O8","C2/m","-1.921","0.002","1.796","","12","3.195","151.196","true","monoclinic",""
"mp-774328","LiCr3O8","C2/m","-1.921","0.002","0.658","","24","3.207","301.287","true","monoclinic",""
"mp-699330","LiCr3O8","Pnnm","-1.92","0.003","1.856","","24","3.34","289.265","true","orthorhombic",""
"mp-780493","Li8CrO6","P63cm","-2.142","0.005","2.134","","30","2.313","292.262","true","hexagonal",""
"mp-769794","Li2CrO3","C2/c","-2.254","0.006","1.742","","12","3.021","125.181","true","monoclinic",""
"mp-778718","Li2Cr2O7","C2/c","-1.9","0.011","2.378","","22","2.524","302.495","true","monoclinic",""
"mp-770390","Li2Cr4O13","P21/c","-1.754","0.014","1.554","","76","2.406","1186.693","true","monoclinic",""
"mp-772434","Li4CrO4","Cmcm","-2.183","0.014","1.727","","18","2.627","181.723","true","orthorhombic",""
"mp-772323","Li2Cr4O13","P21/c","-1.753","0.015","1.499","","76","2.348","1215.834","true","monoclinic",""
"mp-771607","Li7Cr5O12","C2/m","-2.313","0.017","0.000","","24","3.848","216.027","true","monoclinic",""
"mp-770678","Li2Cr2O7","P21/c","-1.893","0.019","2.437","","44","2.865","532.951","true","monoclinic",""
"mp-769786","Li4CrO4","P1","-2.178","0.019","2.089","","18","2.586","184.603","true","triclinic",""
"mp-769772","Li2CrO3","C2/m","-2.241","0.019","0.822","","12","3.58","105.649","true","monoclinic",""
"mp-774032","LiCr2O4","P1","-2.258","0.02","0.495","","28","3.949","294.214","true","triclinic",""
"mp-769767","Li2CrO4","Pmn21","-2.087","0.021","3.064","","14","2.384","180.955","true","orthorhombic",""
"mp-770688","Li4CrO5","C2/c","-2.075","0.021","1.392","","20","2.65","200.191","true","monoclinic",""
"mp-770628","Li2CrO3","C2/c","-2.232","0.028","0.017","","24","3.586","210.941","false","monoclinic",""
"mp-771288","Li3Cr4O8","R3m","-2.312","0.031","0.736","","15","4.027","147.116","true","trigonal",""
"mp-763579","Li4Cr5O10","P1","-2.323","0.031","0.000","","19","4.039","184.078","true","triclinic",""
"mp-770862","Li2Cr2O7","P1","-1.879","0.033","2.453","","44","2.66","574.038","true","triclinic",""
"mp-771523","LiCr2O4","Cc","-2.244","0.034","0.429","","28","4.099","283.452","true","monoclinic",""
"mp-769775","Li2Cr2O7","P1","-1.877","0.035","2.408","","22","2.472","308.799","true","triclinic",""
"mp-770582","Li8CrO6","R3","-2.111","0.036","1.043","","15","2.694","125.43","true","trigonal",""
"mp-766115","LiCrO2","P63mc","-2.363","0.036","2.962","","8","4.047","74.627","true","hexagonal",""
"mp-762454","LiCrO2","I41/amd","-2.357","0.042","1.769","","8","4.177","72.31","true","tetragonal",""
"mp-772513","LiCr3O8","Pnma","-1.88","0.043","1.669","","48","2.9","666.274","true","orthorhombic",""
"mp-772318","Li2Cr2O7","P1","-1.869","0.043","2.493","","22","2.633","289.962","true","triclinic",""
"mp-771430","Li6Cr2O7","C2/c","-2.179","0.043","0.005","","30","3.175","269.52","true","monoclinic",""
"mp-773145","Li2Cr4O13","C2221","-1.724","0.044","1.354","","38","2.26","631.643","true","orthorhombic",""
"mp-770694","Li6Cr2O7","P21/c","-2.178","0.044","0.773","","30","3.173","269.631","true","monoclinic",""
"mp-775130","Li2CrO3","C2/m","-2.213","0.047","0.493","","12","3.567","106.021","true","monoclinic",""
"mp-770684","LiCr2O4","Pnma","-2.229","0.049","0.027","","28","4.242","273.906","false","orthorhombic",""
"mp-763266","Li2CrO4","P1","-2.057","0.05","2.881","","14","2.323","185.68","true","triclinic",""
"mp-773197","Li2Cr4O13","C2/c","-1.718","0.05","1.405","","38","2.294","622.258","true","monoclinic",""
"mp-762894","Li7Cr2O8","P1","-2.142","0.052","0.502","","17","2.527","184.349","true","triclinic",""
"mp-770872","Li2Cr2O7","P1","-1.86","0.052","2.405","","44","2.581","591.564","true","triclinic",""
"mp-773203","Li4CrO5","P1","-2.044","0.052","0.000","","40","2.984","355.657","true","triclinic",""
"mp-770652","LiCr3O9","Cc","-1.722","0.053","1.347","","78","2.355","1298.522","false","monoclinic",""
"mp-770192","Li2CrO3","Cc","-2.207","0.054","0.449","","12","3.633","104.099","true","monoclinic",""
"mp-772586","Li2Cr2O7","P21/c","-1.855","0.057","2.450","","44","2.563","595.711","true","monoclinic",""
"mp-771074","Li7CrO6","Cc","-2.082","0.057","0.872","","28","2.235","292.119","true","monoclinic",""
"mp-772571","Li4CrO5","P1","-2.036","0.06","1.274","","20","3.07","172.832","true","triclinic",""
"mp-771091","Li2Cr2O7","P41212","-1.851","0.061","2.199","","44","2.802","544.874","true","tetragonal",""
"mp-770871","Li6Cr2O7","P2/c","-2.16","0.062","1.527","","30","2.623","326.155","true","monoclinic",""
"mp-762282","Li3Cr5O10","P1","-2.242","0.063","0.000","","18","3.957","184.964","true","triclinic",""
"mp-781691","Li6Cr5O12","P21","-2.247","0.063","0.000","","46","3.756","436.423","true","monoclinic",""
"mp-763843","Li5Cr2O8","P1","-2.087","0.065","0.518","","15","2.385","185.705","true","triclinic",""
"mp-770755","Li3CrO3","P31c","-2.193","0.065","1.005","","28","3.173","252.939","true","trigonal",""
"mp-764700","Li9Cr5O12","C2/m","-2.258","0.066","1.459","","26","3.632","235.197","true","monoclinic",""
"mp-772396","Li2Cr2O7","P1","-1.846","0.066","2.327","","22","2.79","273.616","true","triclinic",""
"mp-853223","Li9Cr19O48","P1","-1.987","0.066","0.082","","76","3.393","889.989","false","triclinic",""
"mp-770745","Li2Cr2O7","Cmce","-1.845","0.067","1.521","","44","2.983","511.799","true","orthorhombic",""
"mp-849673","Li17Cr2O12","P1","-2.082","0.068","0.762","","31","2.637","260.729","true","triclinic",""
"mp-772297","Li2Cr2O7","P1","-1.844","0.068","1.166","","22","2.672","285.707","true","triclinic",""
"mp-762466","Li2Cr3O6","Cc","-2.253","0.069","0.555","","22","3.948","223.645","true","monoclinic",""
"mp-770603","Li5CrO5","C2","-2.088","0.07","1.264","","11","2.688","102.977","true","monoclinic",""
"mp-772581","LiCr6O11","P63mc","-2.158","0.07","0.000","","36","4.337","379.005","true","hexagonal",""
"mp-769803","Li2CrO4","P1","-2.036","0.071","2.502","","14","2.344","184.025","true","triclinic",""
"mp-763703","Li3CrO4","P1","-2.119","0.072","1.017","","16","2.441","186.144","true","triclinic",""
"mp-770149","Li2CrO3","Cmc21","-2.188","0.072","1.408","","12","2.831","133.61","true","orthorhombic",""
"mp-762467","Li15Cr2O12","P1","-2.071","0.072","0.000","","29","2.653","250.452","true","triclinic",""
"mp-772666","Li2Cr2O7","P1","-1.839","0.073","2.438","","22","2.629","290.403","true","triclinic",""
"mp-771466","Li2Cr2O7","P1","-1.839","0.073","0.000","","44","2.662","573.628","true","triclinic",""
"mp-770728","Li3CrO4","P2","-2.117","0.074","0.000","","48","3.293","413.908","true","monoclinic",""
"mp-771413","Li3CrO4","C2/c","-2.116","0.074","0.623","","32","3.303","275.158","true","monoclinic",""
"mp-772659","Li3CrO4","P4122","-2.116","0.075","0.825","","32","3.285","276.626","true","tetragonal",""
"mp-769766","Li3CrO4","P2/c","-2.116","0.075","0.581","","16","3.284","138.374","true","monoclinic",""
"mp-770861","Li8Cr2O9","P1","-2.096","0.076","0.664","","76","2.973","678.084","true","triclinic",""
"mp-851274","Li9Cr19O48","P1","-1.976","0.077","0.319","","76","3.396","889.074","false","triclinic",""
"mp-773797","Li2Cr5O12","Pbcn","-1.997","0.077","0.018","","76","2.992","1034.257","false","orthorhombic",""
"mp-769787","LiCr2O3","C2/c","-2.173","0.079","0.848","","24","4.411","239.338","true","monoclinic",""
"mp-773174","LiCr4O12","I41/acd","-1.647","0.08","0.000","","68","2.567","1052.883","true","tetragonal",""
"mp-762482","Li2Cr3O6","Fddd","-2.241","0.081","0.504","","22","4.125","214.048","true","orthorhombic",""
"mp-770595","Li2CrO3","Cmmm","-2.179","0.081","0.000","","6","3.425","55.206","true","orthorhombic",""
"mp-772353","Li4Cr3O8","R3m","-2.179","0.084","0.241","","15","3.487","148.472","true","trigonal",""
"mp-769757","Li6CrO6","Cc","-2.006","0.085","0.518","","26","2.094","300.785","true","monoclinic",""
"mp-777303","Li3CrO4","Cmmm","-2.105","0.086","0.915","","8","3.329","68.256","true","orthorhombic",""
"mp-770391","Li2CrO2","C2/m","-2.022","0.086","1.470","","5","3.222","50.44","true","monoclinic",""
"mp-772272","Li2Cr2O7","P21/c","-1.826","0.086","2.513","","44","2.673","571.183","true","monoclinic",""
"mp-850964","Li3CrO4","Cmc21","-2.104","0.087","1.302","","16","2.996","151.686","true","orthorhombic",""
"mvc-16816","LiCr2O4","Imma","-2.191","0.087","0.824","","14","3.95","147.082","false","orthorhombic",""
"mp-771534","Li2Cr3O6","Cmce","-2.231","0.091","0.000","","22","3.829","230.588","true","orthorhombic",""
"mp-772552","Li6CrO4","P42/nmc","-1.994","0.093","1.824","","22","2.47","211.937","true","tetragonal",""
"mp-770580","LiCr2O3","C2/c","-2.158","0.093","0.000","","12","4.508","117.098","true","monoclinic",""
"mp-764428","Li12Cr5O16","P1","-2.149","0.094","0.586","","33","3.486","285.483","true","triclinic",""
"mp-772426","Li2Cr3O10","P21/c","-1.727","0.094","2.024","","60","2.619","836.607","true","monoclinic",""
"mp-781054","Li2Cr4O13","P1","-1.672","0.096","1.486","","57","2.898","738.983","true","triclinic",""
"mp-850237","Li5Cr4O8","Cmc21","-2.218","0.096","1.110","","34","3.938","312.599","true","orthorhombic",""
"mp-770687","LiCr2O5","Pnma","-1.981","0.096","0.000","","32","3.147","403.007","true","orthorhombic",""
"mp-772568","Li2Cr4O13","P1","-1.671","0.097","1.511","","57","2.924","732.298","true","triclinic",""
"mp-770681","LiCr10O15","Cmce","-2.228","0.098","0.204","","52","4.482","568.309","true","orthorhombic",""
"mp-762528","Li5Cr5O12","P1","-2.169","0.099","0.031","","44","3.709","435.825","false","triclinic",""
"mp-772671","Li5CrO4","Pbca","-2.103","0.099","1.545","","80","2.524","793.123","true","orthorhombic",""
"mp-850464","Li5Cr4O8","P212121","-2.214","0.099","1.090","","68","3.87","636.27","true","orthorhombic",""
"mp-773996","Li2CrO4","Pc","-2.008","0.099","2.469","","56","2.331","740.008","true","monoclinic",""
"mp-764409","Li2CrO3","Pnna","-2.16","0.1","0.624","","24","3.657","206.809","true","orthorhombic",""
"mp-764780","LiCr2O4","C2/c","-2.178","0.1","0.000","","14","3.892","149.265","true","monoclinic",""