"Materials Id","Formula","Spacegroup","Formation Energy (eV)","E Above Hull (eV)","Band Gap (eV)","Count","Nsites","Density (gm/cc)","Volume","Has Bandstructure","Crystal System",""
"mp-769744","Li4Cr3CoO8","C2/m","-2.237","0.008","0.853","","16","4.287","143.597","true","monoclinic",""
"mp-761831","Li3Cr(CoO3)2","C2/m","-1.979","0.008","0.631","","12","4.624","102.954","true","monoclinic",""
"mp-769750","Li4Cr3CoO8","C2/m","-2.236","0.009","0.585","","16","4.287","143.597","true","monoclinic",""
"mp-765927","Li2CrCoO4","Imma","-2.076","0.014","0.308","","16","4.537","138.21","true","orthorhombic",""
"mp-765438","Li3Cr3CoO8","R3m","-2.167","0.019","0.978","","15","4.148","145.624","true","trigonal",""
"mp-773157","Li9Cr12Co7O48","P1","-1.781","0.024","0.258","","76","3.432","903.311","false","triclinic",""
"mp-764806","Li3CrCo3O8","C2/m","-1.829","0.027","0.225","","15","4.6","136.306","true","monoclinic",""
"mp-769741","Li4Cr3CoO8","P2/m","-2.212","0.033","0.787","","16","4.216","145.992","true","monoclinic",""
"mp-762609","Li2CrCo3O8","C2","-1.725","0.038","0.000","","56","4.578","537.789","true","monoclinic",""
"mp-763181","LiCrCo3O8","R3m","-1.544","0.038","0.000","","13","4.336","139.282","true","trigonal",""
"mp-762011","LiCrCoO4","Imma","-1.901","0.039","0.563","","14","4.337","139.269","true","orthorhombic",""
"mp-766809","Li3Cr2CoO6","C2/m","-2.154","0.04","0.777","","12","4.22","110.088","true","monoclinic",""
"mp-769711","Li3Cr3CoO8","P1","-2.145","0.041","0.377","","30","4.227","285.777","false","triclinic",""
"mp-769795","Li3Cr(CoO2)4","C2/m","-1.782","0.041","0.000","","16","5.067","143.072","true","monoclinic",""
"mp-762918","Li2Cr2CoO6","C2/m","-2.065","0.043","0.653","","11","4.181","108.353","true","monoclinic",""
"mp-761748","Li2CrCo3O8","R3m","-1.716","0.046","0.000","","14","4.578","134.441","true","trigonal",""
"mp-766712","Li2CrCo3O8","P63mc","-1.709","0.054","0.000","","28","4.706","261.598","true","hexagonal",""
"mp-763184","Li3Cr3CoO8","C2/m","-2.13","0.055","0.769","","15","4.22","143.123","false","monoclinic",""
"mp-763111","Li4Cr3(CoO4)3","P1","-1.939","0.057","0.750","","22","4.258","215.477","true","triclinic",""
"mp-763135","Li2Cr2CoO6","P1","-2.045","0.063","0.000","","33","4.25","319.746","true","triclinic",""
"mp-775237","Li5Cr2Co3O10","P1","-1.966","0.063","0.000","","20","4.511","175.016","true","triclinic",""
"mp-765784","Li2CrCoO4","P2/m","-2.026","0.064","0.011","","8","4.283","73.195","true","monoclinic",""
"mp-850480","Li3CrCo3O8","R3m","-1.79","0.066","0.000","","15","4.621","135.684","true","trigonal",""
"mp-761675","Li2Cr3CoO8","R3m","-2.052","0.066","0.590","","14","4.089","144.897","true","trigonal",""
"mp-772007","Li2Cr3CoO8","R3m","-2.051","0.067","0.000","","14","4.074","145.416","true","trigonal",""
"mp-763114","Li3Cr2(CoO4)2","C2/m","-1.953","0.068","0.900","","15","4.493","136.985","true","monoclinic",""
"mp-779929","LiCr(CoO3)2","C2/m","-1.645","0.071","0.000","","10","4.292","105.535","true","monoclinic",""
"mp-771505","Li4CrCo5O12","C2/m","-1.692","0.078","0.148","","22","4.5","209.029","true","monoclinic",""
"mp-769974","Li2Cr3CoO8","P1","-2.04","0.078","0.512","","28","4.064","291.545","true","triclinic",""
"mp-763109","Li2Cr3(CoO4)3","P1","-1.77","0.08","0.226","","20","4.158","215.123","true","triclinic",""
"mp-766730","Li3Cr3(CoO6)2","P21/c","-1.823","0.081","0.819","","80","3.196","1011.283","true","monoclinic",""
"mp-773221","Li5Cr2Co5O12","C2","-1.83","0.082","0.000","","24","4.7","220.953","true","monoclinic",""
"mp-763336","Li2Cr3CoO8","C2/m","-2.035","0.083","0.602","","14","4.07","145.566","true","monoclinic",""
"mp-761651","Li2Cr(CoO3)2","Cmce","-1.8","0.083","0.000","","22","4.401","211.101","true","orthorhombic",""
"mp-765937","Li4CrCo3O8","R3m","-1.849","0.087","0.330","","16","4.424","144.356","true","trigonal",""
"mp-763185","Li2CrCo3O8","C2/m","-1.672","0.09","0.401","","14","4.313","142.715","true","monoclinic",""
"mp-771854","Li4Cr5Co3O16","P1","-1.935","0.094","0.047","","28","4.313","277.427","true","triclinic",""
"mp-763359","LiCr2CoO6","Cm","-1.871","0.103","0.490","","10","4.106","107.518","true","monoclinic",""
"mp-770000","Li2CrCoO4","I4m2","-1.979","0.112","0.000","","8","4.562","68.721","true","tetragonal",""
"mp-770878","Li4Cr3Co5O16","P1","-1.732","0.119","0.041","","28","4.433","275.127","false","triclinic",""
"mp-771793","Li4Cr3CuO8","R3m","-2.151","0.015","0.000","15","16","4.254","146.492","true","trigonal",""
"mp-997512","Li3Cr2CuO6","C2/m","-2.067","0.022","0.412","","12","4.351","108.526","true","monoclinic",""
"mp-773344","Li2CrCuO4","Imma","-1.898","0.035","0.000","","16","4.442","144.628","true","orthorhombic",""
"mp-769804","Li3Cr(CuO2)4","C2/m","-1.536","0.037","0.000","","16","4.965","152.168","true","monoclinic",""
"mp-766740","Li6Cr5CuO12","C2/m","-2.199","0.045","0.410","","24","4.166","222.106","true","monoclinic",""
"mp-769959","Li4CrCu3O8","R3m","-1.643","0.055","0.000","","16","4.648","142.332","true","trigonal",""
"mp-770587","Li3Cr3CuO8","R3m","-2.053","0.057","0.000","","15","4.228","144.661","true","trigonal",""
"mp-774351","Li3Cr3(CuO6)2","P21/c","-1.719","0.059","0.000","","80","3.232","1019.143","false","monoclinic",""
"mp-777277","Li2Cr3CuO8","P21","-1.969","0.059","0.525","","56","4.138","580.085","true","monoclinic",""
"mp-770005","Li5Cr2Cu3O10","P1","-1.78","0.06","0.176","","20","4.394","184.941","true","triclinic",""
"mp-773309","Li2CrCuO4","P2/m","-1.873","0.061","0.000","","8","4.437","72.391","true","monoclinic",""
"mp-780873","Li2Cr3CuO8","R3m","-1.962","0.067","0.000","","14","4.109","146.047","true","trigonal",""
"mp-765795","Li2Cr3CuO8","R3m","-1.949","0.079","0.000","","14","4.164","144.136","true","trigonal",""
"mp-769965","Li2Cr3CuO8","Cc","-1.942","0.086","0.220","","28","4.239","283.141","true","monoclinic",""
"mp-773227","Li5Cr2Cu5O12","C2","-1.604","0.088","0.000","","24","4.786","224.971","true","monoclinic",""
"mp-771093","Li3Cr10Fe5O24","Cm","-2.226","0","1.412","74","42","4.387","455.757","true","monoclinic",""
"mp-770076","Li4CrFe3O8","P1","-2.157","0","1.847","","32","4.145","300.676","true","triclinic",""
"mp-771082","Li4CrFe3O8","P1","-2.156","0.001","1.713","","32","4.151","300.252","true","triclinic",""
"mp-770230","Li4CrFe3O8","P1","-2.156","0.001","1.680","","32","4.118","302.661","true","triclinic",""
"mp-770145","Li4CrFe3O8","P1","-2.156","0.001","0.000","","32","4.124","302.222","true","triclinic",""
"mp-771661","Li3Cr(FeO3)2","C2/m","-2.183","0.001","1.706","","12","4.116","113.164","true","monoclinic",""
"mp-769742","Li4CrFe3O8","P2/m","-2.156","0.001","1.715","","16","4.155","149.994","true","monoclinic",""
"mp-769753","Li4CrFe3O8","C2/m","-2.156","0.001","1.740","","16","4.128","150.982","true","monoclinic",""
"mp-770185","Li4CrFe3O8","P1","-2.156","0.001","1.702","","16","4.13","150.909","true","triclinic",""
"mp-771065","Li4CrFe3O8","P1","-2.156","0.001","0.000","","32","4.136","301.348","true","triclinic",""
"mp-773312","Li3Cr2FeO6","C2/m","-2.29","0.001","1.884","","12","4.118","111.551","true","monoclinic",""
"mp-769996","Li4CrFe3O8","C2/m","-2.156","0.001","1.673","","16","4.128","150.967","true","monoclinic",""
"mp-765495","Li4CrFe3O8","R3m","-2.155","0.002","1.711","","16","4.121","151.236","true","trigonal",""
"mp-769992","Li2CrFeO4","P1","-2.236","0.002","2.043","","16","4.123","149.599","true","triclinic",""
"mp-770020","Li2CrFeO4","C2/m","-2.236","0.002","1.684","","16","4.122","149.617","true","monoclinic",""
"mp-769998","Li2CrFeO4","P1","-2.236","0.002","1.986","","24","4.123","224.389","true","triclinic",""
"mp-770013","Li2CrFeO4","P1","-2.236","0.002","1.976","","24","4.129","224.09","true","triclinic",""
"mp-770032","Li2CrFeO4","P1","-2.235","0.002","1.952","","24","4.122","224.466","true","triclinic",""
"mp-770193","Li2CrFeO4","C2/m","-2.235","0.002","1.662","","8","4.131","74.66","true","monoclinic",""
"mp-769983","Li2CrFeO4","P2/m","-2.235","0.003","1.708","","8","4.13","74.664","true","monoclinic",""
"mp-765743","Li2CrFeO4","Imma","-2.234","0.004","1.602","","16","4.145","148.799","true","orthorhombic",""
"mp-771630","LiCr3(FeO4)2","R3m","-2.193","0.006","1.300","","14","4.376","152.773","true","trigonal",""
"mp-771605","Li2CrFeO4","I4m2","-2.205","0.032","1.273","","8","4.189","73.626","true","tetragonal",""
"mp-765750","Li5Cr2Fe3O10","P1","-2.17","0.035","1.036","","20","4.141","186.958","true","triclinic",""
"mp-777653","Li2Cr3FeO8","P1","-2.155","0.041","0.127","","56","3.965","592.49","false","triclinic",""
"mp-780020","Li3Cr3FeO8","C2/m","-2.223","0.042","0.728","","15","4.012","149.268","true","monoclinic",""
"mp-775335","Li2Cr3FeO8","Cc","-2.151","0.045","0.537","","28","4.118","285.228","true","monoclinic",""
"mp-770328","Li4Cr3FeO8","P1","-2.273","0.045","2.170","","32","4.164","293.214","true","triclinic",""
"mp-771210","Li3CrFe3O8","R3m","-2.049","0.047","0.000","","15","4.032","151.701","true","trigonal",""
"mp-780017","Li3Cr2(FeO4)2","C2/m","-2.133","0.049","0.644","","15","4.044","149.678","true","monoclinic",""
"mp-850397","Li4Cr2Fe5O12","P21","-2.063","0.052","1.282","","46","4.452","449.825","true","monoclinic",""
"mp-774130","LiCrFeO4","Imma","-2.06","0.053","0.169","","14","3.97","149.56","true","orthorhombic",""
"mp-769977","Li3CrFe3O8","P1","-2.041","0.056","0.644","","30","4.069","300.63","true","triclinic",""
"mp-775129","Li2Cr3(FeO6)2","Pbcn","-1.887","0.057","0.015","","76","2.997","1049.438","false","orthorhombic",""
"mp-775079","Li2Cr3FeO8","R3m","-2.139","0.057","0.000","","14","4.045","145.206","true","trigonal",""
"mp-865135","Li2CrFeO4","C2","-2.178","0.059","2.269","","24","4.163","222.256","true","monoclinic",""
"mp-770058","Li2CrFeO4","P1","-2.178","0.06","1.928","","24","4.203","220.128","true","triclinic",""
"mp-780315","Li4Cr2Fe3O10","P1","-2.1","0.06","0.962","","19","4.107","185.718","true","triclinic",""
"mp-774415","Li2Cr3FeO8","R3m","-2.133","0.063","0.000","","14","3.986","147.36","true","trigonal",""
"mp-765278","Li5Cr3FeO8","P1","-2.208","0.065","2.360","","68","3.975","625.869","true","triclinic",""
"mp-773204","Li4Cr5Fe3O16","Cm","-2.086","0.068","0.000","","28","4.135","285.626","true","monoclinic",""
"mp-763933","Li3CrFe3O8","P63mc","-2.025","0.071","0.626","","30","4.239","288.593","true","hexagonal",""
"mp-773209","Li3Cr4FeO8","C2/m","-2.193","0.077","1.070","","16","4.41","155.363","true","monoclinic",""
"mp-780090","Li4Cr3(FeO4)3","P1","-2.085","0.077","0.128","","22","4.007","225.141","true","triclinic",""
"mp-863856","Li3Cr3FeO8","R3m","-2.186","0.08","0.000","","15","4.078","146.856","true","trigonal",""
"mp-853144","Li3Cr3FeO8","R3m","-2.184","0.082","0.000","","15","4.113","145.617","true","trigonal",""
"mp-775460","Li2CrFe3O8","C2221","-1.943","0.084","0.000","","56","4.008","598.876","true","orthorhombic",""
"mp-772464","Li4Cr3Fe5O16","P1","-1.987","0.084","0.000","","28","4.133","288.854","true","triclinic",""
"mp-769807","Li3Cr(FeO2)4","C2/m","-1.971","0.085","0.000","","16","4.573","154.039","true","monoclinic",""
"mp-775048","LiCrFeO4","P4322","-2.028","0.085","0.723","","28","4.102","289.519","true","tetragonal",""
"mp-765502","Li4Cr3FeO8","R3m","-2.23","0.088","2.106","","16","4.227","144.397","true","trigonal",""
"mp-770303","Li4Cr3FeO8","P1","-2.228","0.09","2.309","","32","4.21","290.01","true","triclinic",""
"mp-769752","Li4Cr3FeO8","P1","-2.228","0.09","2.439","","16","4.205","145.164","true","triclinic",""
"mp-770224","Li4Cr3FeO8","P1","-2.228","0.09","2.304","","32","4.212","289.85","true","triclinic",""
"mp-769755","Li4Cr3FeO8","P2/m","-2.228","0.091","2.341","","16","4.229","144.333","true","monoclinic",""
"mp-769758","Li4Cr3FeO8","C2/m","-2.228","0.091","2.362","","16","4.229","144.348","true","monoclinic",""
"mp-770257","Li4Cr3FeO8","P1","-2.226","0.092","2.418","","32","4.215","289.637","true","triclinic",""
"mp-779991","Li2Cr3FeO8","C2/m","-2.104","0.092","0.383","","14","3.929","149.494","true","monoclinic",""
"mp-770085","Li4Cr3FeO8","P1","-2.226","0.092","2.374","","32","4.215","289.662","true","triclinic",""
"mp-765203","Li11Cr3Fe3O16","P1","-2.084","0.097","0.000","","33","3.57","305.103","false","triclinic",""
"mp-767681","Li8Cr(FeO4)3","P2","-1.965","0.099","0.000","","24","3.67","211.311","true","monoclinic",""
"mp-769975","Li2Cr3FeO8","P1","-2.093","0.103","0.013","","28","3.927","299.15","false","triclinic",""
"mp-770975","Li4Cr5FeO12","C2/m","-2.167","0.103","0.021","","22","3.823","232.658","true","monoclinic",""
"mp-770226","Li3Cr3FeO8","P1","-2.162","0.104","0.000","","30","4.13","290.014","true","triclinic",""
"mp-850905","Li4Cr3(FeO4)3","F222","-2.054","0.108","0.000","","22","4.145","217.621","true","orthorhombic",""
"mp-782636","Li2Cr2FeO6","P1","-2.107","0.11","0.000","","33","4.05","331.779","false","triclinic",""
"mp-782631","Li2Cr(FeO3)2","P1","-1.987","0.117","0.091","","33","4.057","335.936","true","triclinic",""
"mp-769871","Li2CrFe3O8","Cmc21","-1.905","0.121","0.000","","28","4.143","289.733","true","orthorhombic",""
"mp-780014","Li2Cr3FeO8","C2/m","-2.06","0.136","0.000","","14","4.002","146.748","true","monoclinic",""
"mp-780009","Li3Cr2Fe5O12","C2","-1.959","0.148","0.000","","22","4.352","227.422","true","monoclinic",""
"mp-773222","Li5Cr2Fe5O12","C2","-1.96","0.156","0.968","","24","4.605","219.953","true","monoclinic",""
"mp-763916","Li5Cr3FeO8","R3m","-2.112","0.16","0.000","","17","4.015","154.885","true","trigonal",""
"mp-770042","Li2CrFeO4","C2/c","-2.064","0.173","2.140","","16","4.326","142.585","true","monoclinic",""
"mp-775085","Li2Cr2FeO6","Cmce","-2.029","0.188","0.324","","22","3.958","226.292","true","orthorhombic",""
"mp-761449","Li4Mn3Cr3(FeO8)2","P1","-2.112","0.021","0.620","5","28","4.196","283.459","true","triclinic",""
"mp-849471","Li4Mn3Cr2Fe3O16","Cm","-2.043","0.047","0.000","","28","4.211","283.981","true","monoclinic",""
"mp-767201","Li4Mn2Cr3Fe3O16","Cm","-2.046","0.067","0.000","","28","4.191","284.138","true","monoclinic",""
"mp-868267","Li6Mn3Cr2Fe3O16","P1","-2.08","0.076","0.372","","30","4.254","286.524","true","triclinic",""
"mp-777601","Li10Mn3Cr3(FeO8)2","P1","-2.121","0.077","1.030","","34","4.009","313.931","true","triclinic",""
"mp-769505","Li7Mn10Cr6O32","P1","-2.156","0","0.000","110","55","4.069","580.275","false","triclinic",""
"mp-774951","Li2MnCr3O8","C2221","-2.244","0","0.686","","56","4.034","580.873","true","orthorhombic",""
"mp-775496","Li3Mn5Cr3O16","Cm","-2.13","0","0.000","","27","4.062","289.196","true","monoclinic",""
"mp-775679","Li2Mn3CrO8","P43212","-2.147","0","0.691","","56","4.076","584.442","true","tetragonal",""
"mp-777732","Li8Mn13Cr3O32","C2/m","-2.132","0","0.222","","56","4.045","590.15","true","monoclinic",""
"mp-770492","Li24Mn11CrO36","P1","-2.189","0.002","1.231","","72","3.728","623.099","true","triclinic",""
"mp-770668","Li24Mn11CrO36","C2","-2.189","0.002","1.240","","72","3.732","622.423","true","monoclinic",""
"mp-770669","Li24Mn11CrO36","C2","-2.189","0.002","1.262","","72","3.726","623.385","true","monoclinic",""
"mp-770619","Li24Mn11CrO36","C2","-2.189","0.003","1.234","","72","3.733","622.324","true","monoclinic",""
"mp-770622","Li24Mn11CrO36","C2","-2.189","0.003","1.236","","72","3.731","622.647","false","monoclinic",""
"mp-778798","Li32Mn13Cr3O48","P1","-2.195","0.005","1.244","","96","3.71","832.709","false","triclinic",""
"mp-779189","Li32Mn13Cr3O48","P1","-2.195","0.005","1.257","","96","3.714","831.802","false","triclinic",""
"mp-779206","Li32Mn13Cr3O48","P1","-2.195","0.005","1.254","","96","3.695","835.961","false","triclinic",""
"mp-779270","Li32Mn13Cr3O48","P1","-2.195","0.005","1.245","","96","3.704","833.922","false","triclinic",""
"mp-779198","Li32Mn13Cr3O48","P1","-2.195","0.005","1.242","","96","3.694","836.216","false","triclinic",""
"mp-779803","Li32Mn13Cr3O48","P1","-2.195","0.005","1.227","","96","3.708","833.185","false","triclinic",""
"mp-779392","Li32Mn13Cr3O48","P1","-2.194","0.005","1.045","","96","3.709","832.806","false","triclinic",""
"mp-773299","LiMn3CrO8","R3m","-2.025","0.007","1.115","","13","4.087","142.931","true","trigonal",""
"mp-779327","Li32Mn11Cr5O48","P1","-2.201","0.008","1.011","","96","3.68","836.844","false","triclinic",""
"mp-773293","Li2MnCrO4","C2/c","-2.271","0.008","0.995","","16","4.067","150.899","true","monoclinic",""
"mp-779106","Li32Mn11Cr5O48","C2","-2.201","0.008","1.064","","96","3.692","833.974","false","monoclinic",""
"mp-770529","Li8Mn15CrO32","P1","-2.084","0.008","0.184","","56","4.004","598.65","false","triclinic",""
"mp-779772","Li32Mn11Cr5O48","P1","-2.2","0.008","1.019","","96","3.686","835.494","true","triclinic",""
"mp-775295","Li2MnCr3O8","R3m","-2.236","0.009","0.000","","14","4.015","145.932","true","trigonal",""
"mp-771203","Li4MnCr3O8","C2/m","-2.33","0.009","0.676","","16","4.099","148.553","true","monoclinic",""
"mp-779100","Li24Mn7Cr5O36","P1","-2.207","0.01","1.094","","72","3.66","629.351","false","triclinic",""
"mp-770321","Li2Mn3CrO8","R3m","-2.138","0.01","0.000","","14","4.048","147.124","true","trigonal",""
"mp-770089","Li24Mn7Cr5O36","P1","-2.207","0.01","1.114","","72","3.669","627.784","false","triclinic",""
"mp-778764","Li24Mn7Cr5O36","P1","-2.207","0.01","1.043","","72","3.681","625.806","false","triclinic",""
"mp-770312","Li24Mn7Cr5O36","P1","-2.207","0.01","1.131","","72","3.66","629.404","false","triclinic",""
"mp-770232","Li24Mn7Cr5O36","P1","-2.206","0.01","1.122","","72","3.661","629.085","false","triclinic",""
"mp-770281","Li24Mn7Cr5O36","P1","-2.206","0.01","1.105","","72","3.67","627.597","false","triclinic",""
"mp-770366","Li24Mn7Cr5O36","P1","-2.206","0.01","1.116","","72","3.667","628.056","false","triclinic",""
"mp-770250","Li24Mn7Cr5O36","P1","-2.206","0.011","1.115","","72","3.663","628.795","false","triclinic",""
"mp-780441","Li24Mn7Cr5O36","P1","-2.206","0.011","1.004","","72","3.666","628.312","true","triclinic",""
"mp-770106","Li4MnCrO6","P1","-2.211","0.012","0.995","","48","3.632","421.877","true","triclinic",""
"mp-770156","Li4MnCrO6","P1","-2.211","0.012","1.051","","48","3.651","419.668","true","triclinic",""
"mp-770178","Li4MnCrO6","C2","-2.211","0.012","0.989","","48","3.659","418.745","true","monoclinic",""
"mp-770246","Li4MnCrO6","C2/c","-2.211","0.012","1.054","","24","3.658","209.431","true","monoclinic",""
"mp-770172","Li4MnCrO6","P1","-2.21","0.013","1.039","","48","3.65","419.867","true","triclinic",""
"mp-770302","Li24Mn5Cr7O36","P1","-2.216","0.014","1.077","","72","3.63","631.853","false","triclinic",""
"mp-779388","Li24Mn5Cr7O36","P1","-2.215","0.014","1.033","","72","3.646","629.107","false","triclinic",""
"mp-770301","Li24Mn5Cr7O36","P1","-2.215","0.014","1.047","","72","3.641","629.933","false","triclinic",""
"mp-770313","Li24Mn5Cr7O36","P1","-2.215","0.014","1.065","","72","3.646","628.999","false","triclinic",""
"mp-770308","Li24Mn5Cr7O36","P1","-2.215","0.014","1.007","","72","3.627","632.443","true","triclinic",""
"mp-770259","Li24Mn5Cr7O36","P1","-2.215","0.014","1.096","","72","3.648","628.807","false","triclinic",""
"mp-770300","Li24Mn5Cr7O36","P1","-2.215","0.014","1.027","","72","3.642","629.705","false","triclinic",""
"mp-770363","Li24Mn5Cr7O36","P1","-2.215","0.014","1.097","","72","3.624","632.913","false","triclinic",""
"mp-770267","Li24Mn5Cr7O36","P1","-2.215","0.014","1.047","","72","3.643","629.527","false","triclinic",""
"mp-770856","Li2MnCrO4","P1","-2.264","0.015","0.648","","64","4.072","602.92","true","triclinic",""
"mp-779799","Li24Mn5Cr7O36","P1","-2.214","0.015","0.883","","72","3.628","632.232","true","triclinic",""
"mp-779786","Li32Mn5Cr11O48","C2","-2.221","0.016","0.464","","96","3.628","840.582","true","monoclinic",""
"mp-781106","Li32Mn5Cr11O48","C2","-2.22","0.017","0.000","","96","3.622","841.969","true","monoclinic",""
"mp-774249","Li3MnCr2O6","C2/m","-2.302","0.017","0.548","","12","4.071","112.472","true","monoclinic",""