"Materials Id","Formula","Spacegroup","Formation Energy (eV)","E Above Hull (eV)","Band Gap (eV)","Count","Nsites","Density (gm/cc)","Volume","Has Bandstructure","Crystal System",""
"mp-868326","Li6Mn5CoO12","P1","-2.045","0.051","0.000","","24","4.018","234.428","true","triclinic",""
"mp-778584","LiMn2(CoO4)2","C2/m","-1.628","0.051","0.206","","13","4.533","132.862","true","monoclinic",""
"mp-761718","Li2MnCo3O8","P63mc","-1.655","0.055","0.000","","28","4.857","255.471","true","hexagonal",""
"mp-779845","Li4Mn2Co3O10","P1","-1.846","0.056","0.000","","38","4.583","343.791","true","triclinic",""
"mp-770976","Li3Mn(CoO2)4","C2/m","-1.707","0.057","0.000","","16","4.901","148.915","true","monoclinic",""
"mp-868385","Li6Mn5CoO12","P1","-2.038","0.057","0.732","","24","3.864","243.764","true","triclinic",""
"mp-773769","Li2MnCo3O8","C2/m","-1.652","0.058","0.578","","14","4.564","135.936","false","monoclinic",""
"mp-769892","Li4Mn3Co5O16","Cm","-1.714","0.06","0.198","","28","4.745","260.086","true","monoclinic",""
"mp-765552","Li2MnCoO4","C2/c","-1.912","0.06","0.494","","16","4.246","149.995","true","monoclinic",""
"mp-765794","Li5Mn3(CoO5)2","P1","-1.948","0.061","0.000","","20","4.199","188.793","true","triclinic",""
"mp-779153","Li3Mn2(CoO4)2","P1","-1.862","0.066","0.215","","15","4.418","141.539","true","triclinic",""
"mp-775491","Li3Mn5(CoO6)2","C2","-1.903","0.069","0.087","","66","4.437","679.65","false","monoclinic",""
"mp-765276","Li5Mn5CoO12","P1","-2.008","0.07","0.331","","69","4.051","688.956","false","triclinic",""
"mp-765669","Li7Mn3Co3O16","Cm","-1.787","0.07","0.082","","29","3.886","276.11","true","monoclinic",""
"mp-765796","Li3Mn3CoO8","R3m","-1.958","0.072","0.000","","15","4.243","145.812","true","trigonal",""
"mp-775088","Li2Mn2CoO6","Cmce","-1.9","0.075","1.077","","22","4.03","229.648","true","orthorhombic",""
"mp-778583","Li3Mn2(CoO4)2","P1","-1.853","0.076","0.000","","15","4.369","143.123","true","triclinic",""
"mp-771545","Li4Mn5CoO12","C2","-1.964","0.08","0.812","","22","3.902","235.495","true","monoclinic",""
"mp-774397","Li4Mn2Co5O12","P21","-1.723","0.08","0.472","","46","4.824","429.772","true","monoclinic",""
"mp-761737","Li2MnCo3O8","R3m","-1.626","0.083","0.000","","14","4.469","138.839","true","trigonal",""
"mp-766797","Li3Mn2(CoO4)2","P1","-1.843","0.086","0.000","","15","4.276","146.241","true","triclinic",""
"mp-868334","Li4MnCo3O8","C2/m","-1.79","0.087","0.435","","16","4.347","148.036","true","monoclinic",""
"mp-778337","Li2Mn(CoO3)2","P1","-1.723","0.097","0.810","","22","4.309","217.886","true","triclinic",""
"mp-774001","Li2Mn3CuO8","P1","-1.869","0.008","0.007","30","56","4.241","579.898","true","triclinic",""
"mp-771741","Li2Mn3CuO8","R3m","-1.859","0.018","0.000","","14","4.206","146.163","true","trigonal",""
"mp-774011","Li7Mn12Cu5O32","R3","-1.816","0.02","0.000","","56","4.459","572.639","true","trigonal",""
"mp-775165","Li2Mn3CuO8","P212121","-1.855","0.022","0.000","","56","4.332","567.725","true","orthorhombic",""
"mp-769514","Li9Mn12Cu3O32","R3","-1.895","0.023","0.000","","56","4.157","568.899","true","trigonal",""
"mp-773500","LiMnCuO4","Imma","-1.616","0.025","0.000","","14","4.411","142.623","true","orthorhombic",""
"mp-765746","Li2MnCu3O8","P4332","-1.359","0.026","0.000","","56","4.489","573.304","true","cubic",""
"mp-849420","Li2Mn3CuO8","R3m","-1.838","0.039","0.000","","14","4.275","143.807","true","trigonal",""
"mp-772456","Li2Mn3CuO8","Cc","-1.834","0.043","0.108","","28","4.337","283.49","true","monoclinic",""
"mp-771451","Li5Mn2Cu3O10","P1","-1.744","0.049","0.000","","20","4.449","184.815","true","triclinic",""
"mp-761365","Li4Mn5Cu3O16","Cm","-1.7","0.063","0.000","","28","4.488","277.177","true","monoclinic",""
"mp-769814","Li3Mn4CuO8","C2/m","-1.941","0.065","0.000","","16","4.581","156.629","true","monoclinic",""
"mp-767348","LiMn5(CuO6)2","C2","-1.666","0.068","0.154","","20","4.465","223.403","true","monoclinic",""
"mp-765282","Li16Mn15(CuO12)3","P1","-1.986","0.068","0.317","","70","3.891","726.274","false","triclinic",""
"mp-771997","Li4MnCu3O8","R3m","-1.596","0.07","0.000","","16","4.617","144.347","true","trigonal",""
"mp-771718","Li3Mn2CuO6","C2/m","-1.905","0.072","0.000","","12","4.203","114.659","true","monoclinic",""
"mp-775241","Li2MnCuO4","I4m2","-1.806","0.072","0.000","","8","4.529","71.994","true","tetragonal",""
"mp-849495","Li4Mn2Cu3O10","P1","-1.63","0.072","0.000","","19","4.419","183.473","true","triclinic",""
"mp-849516","Li4Mn5(CuO6)2","P21","-1.859","0.075","0.003","","46","4.525","456.213","true","monoclinic",""
"mp-771485","Li5Mn2Cu5O12","C2","-1.575","0.078","0.000","","24","4.853","223.883","true","monoclinic",""
"mp-849464","Li3Mn5(CuO6)2","C2","-1.808","0.081","0.000","","22","4.466","228.538","true","monoclinic",""
"mp-849474","Li2Mn5(CuO6)2","P21","-1.746","0.082","0.061","","42","4.448","453.703","true","monoclinic",""
"mp-780643","Li3MnCu3O8","R3m","-1.46","0.082","0.044","","15","4.508","145.279","true","trigonal",""
"mp-764735","Li5Mn2Cu5O12","C2","-1.569","0.084","0.000","","24","4.925","220.599","true","monoclinic",""
"mp-776054","Li2MnCuO4","C2/c","-1.792","0.085","0.000","","16","4.221","154.504","true","monoclinic",""
"mp-773427","Li4Mn3CuO8","R3m","-1.939","0.088","0.000","","16","4.297","148.424","true","trigonal",""
"mp-771715","Li3Mn(CuO3)2","C2/m","-1.644","0.093","0.000","","12","4.604","107.791","true","monoclinic",""
"mp-769821","Li4Mn5CuO12","C2","-1.903","0.099","0.330","","22","3.956","234.228","true","monoclinic",""
"mp-775242","Li2MnCu3O8","R3m","-1.281","0.105","0.000","","14","4.512","142.598","true","trigonal",""
"mp-774095","Li2Mn2CuO6","Cmce","-1.768","0.114","0.235","","22","4.083","230.43","true","orthorhombic",""
"mp-775386","Li4Mn3Fe2Co3O16","Cm","-1.839","0.025","0.000","4","28","4.508","271.499","true","monoclinic",""
"mp-777706","Li10Mn2Fe3Co3O16","P1","-1.905","0.075","0.741","","34","4.229","306.083","true","triclinic",""
"mp-767680","Li4Mn3Fe3(CoO8)2","Cm","-1.826","0.078","0.000","","28","4.354","279.947","true","monoclinic",""
"mp-761441","Li4Mn2Fe3Co3O16","P1","-1.748","0.081","0.277","","28","4.506","271.972","false","triclinic",""
"mp-779210","Li4Mn3Fe2Cu3O16","Cm","-1.668","0.034","0.018","3","28","4.487","277.893","true","monoclinic",""
"mp-767314","Li4Mn3Fe3(CuO8)2","Cm","-1.742","0.054","0.000","","28","4.33","284.986","true","monoclinic",""
"mp-775455","Li4Mn2Fe3Cu3O16","Cm","-1.602","0.066","0.000","","28","4.457","280.086","true","monoclinic",""
"mp-763223","Li4Mn3Fe2Ni3O16","P1","-1.655","0.049","0.084","4","28","4.441","275.307","false","triclinic",""
"mp-769561","Li4Mn3Fe3(NiO8)2","Cm","-1.739","0.065","0.000","","28","4.27","285.221","true","monoclinic",""
"mp-766768","Li4Mn2Fe3Ni3O16","Cm","-1.583","0.082","0.000","","28","4.472","273.77","true","monoclinic",""
"mp-764933","Li10Mn2Fe3Ni3O16","Cm","-1.836","0.086","0.432","","34","4.293","301.286","true","monoclinic",""
"mp-765828","LiMnFeO4","Imma","-2.018","0","0.620","58","14","4.062","148.592","true","orthorhombic",""
"mp-769530","Li3Mn4(FeO6)2","P1","-2.04","0","0.388","","42","4.076","443.439","false","triclinic",""
"mp-775538","Li3Mn5FeO12","C2/c","-2.057","0","0.236","","42","4.066","443.813","true","monoclinic",""
"mp-777396","Li2Mn3FeO8","P43212","-2.047","0.002","0.868","","56","4.058","593.466","true","tetragonal",""
"mp-763910","Li4MnFe3O8","C2/m","-2.089","0.008","1.100","","16","4.13","152.063","true","monoclinic",""
"mp-771462","Li3MnFe3O8","R3m","-2.044","0.012","1.605","","15","4.102","150.303","true","trigonal",""
"mp-775105","Li2MnFeO4","I4m2","-2.105","0.013","0.000","","8","4.2","74.584","true","tetragonal",""
"mp-775732","Li2MnFe3O8","P4332","-1.932","0.015","0.000","","56","4.054","596.935","true","cubic",""
"mp-773283","Li2Mn3FeO8","R3m","-2.033","0.016","0.000","","14","4.055","148.454","true","trigonal",""
"mp-773292","Li3Mn(FeO3)2","C2/m","-2.086","0.017","0.668","","12","4.119","114.269","true","monoclinic",""
"mp-763788","Li5Mn3(FeO5)2","P1","-2.106","0.019","0.000","","20","4.11","190.369","true","triclinic",""
"mp-770627","Li2MnFeO4","Imma","-2.093","0.024","0.179","","16","4.115","152.26","true","orthorhombic",""
"mp-779755","Li5Mn7Fe3O20","P1","-2.019","0.025","0.004","","70","4.099","734.649","false","triclinic",""
"mp-773347","Li2MnFeO4","P2/m","-2.092","0.025","0.207","","8","4.119","76.049","true","monoclinic",""
"mp-769550","Li2Mn5(FeO6)2","Cc","-2.012","0.027","0.400","","42","4.218","466.323","true","monoclinic",""
"mp-769811","Li3Mn4FeO8","C2/m","-2.071","0.027","0.000","","16","4.339","162.416","true","monoclinic",""
"mp-765929","Li5Mn5(FeO6)2","C2","-2.077","0.028","0.009","","24","4.372","232.852","true","monoclinic",""
"mp-764386","Li6Mn(FeO3)2","C2/m","-1.957","0.038","2.630","","15","3.602","140.26","true","monoclinic",""
"mp-770029","LiMn2Fe3O8","Imm2","-1.955","0.04","0.000","","14","4.443","154.121","true","orthorhombic",""
"mp-770175","Li2Mn3FeO8","P63mc","-2.009","0.04","0.000","","28","4.223","285.122","true","hexagonal",""
"mp-777733","Li5Mn2Fe17O32","P1","-1.919","0.044","0.841","","56","4.391","607.368","true","triclinic",""
"mp-772481","Li4Mn5Fe3O16","Cm","-1.989","0.046","0.014","","28","4.214","286.061","true","monoclinic",""
"mp-771651","Li8Mn13Fe3O32","P1","-2.007","0.047","0.394","","56","4.097","587.447","false","triclinic",""
"mp-765758","Li3MnFe3O8","P63mc","-2.008","0.048","1.551","","30","4.299","286.807","true","hexagonal",""
"mp-770757","Li2MnFe3O8","P63mc","-1.898","0.048","0.000","","28","4.191","288.7","true","hexagonal",""
"mp-762805","Li4Mn5(FeO6)2","P21","-2.051","0.05","0.914","","46","4.325","465.474","true","monoclinic",""
"mp-763799","Li2Mn2FeO6","P1","-2.029","0.054","0.011","","33","4.014","342.003","false","triclinic",""
"mp-762835","Li2Mn(FeO3)2","P1","-1.992","0.057","0.904","","33","4.057","339.541","true","triclinic",""
"mp-771755","LiMnFeO4","P4322","-1.961","0.057","1.426","","28","4.213","286.503","true","tetragonal",""
"mp-771586","Li5Mn2Fe5O12","C2","-2.006","0.058","0.811","","24","4.438","230.39","true","monoclinic",""
"mp-767670","Li4Mn3(FeO5)2","P1","-2.043","0.059","0.412","","19","4.069","189.481","true","triclinic",""
"mp-767659","Li3MnFe3O8","C2/m","-1.987","0.069","0.324","","15","4.099","150.41","true","monoclinic",""
"mp-766973","Li8Mn(FeO4)3","P2","-1.951","0.071","0.000","","24","3.684","211.848","true","monoclinic",""
"mp-771097","Li3Mn(FeO2)4","C2/m","-1.944","0.072","0.124","","16","4.638","152.912","true","monoclinic",""
"mp-766742","Li6Mn5FeO12","C2/m","-2.072","0.073","0.000","","24","3.843","243.789","true","monoclinic",""
"mp-771109","Li5Mn2Fe3O10","P1","-2.031","0.078","0.187","","20","4.202","186.55","true","triclinic",""
"mp-772388","Li4Mn3Fe5O16","Cm","-1.903","0.079","0.000","","28","4.272","282.891","true","monoclinic",""
"mp-767669","Li3Mn3(FeO5)2","P1","-1.98","0.08","0.927","","18","4.03","188.43","true","triclinic",""
"mp-768068","Li2MnFe3O8","C2/m","-1.861","0.086","0.000","","14","4.094","147.777","true","monoclinic",""
"mp-773282","LiMn3(FeO4)2","R3m","-1.93","0.091","0.057","","14","4.404","155.119","true","trigonal",""
"mp-767746","Li12Mn2Fe3O16","P1","-1.966","0.092","0.000","","33","3.527","290.357","true","triclinic",""
"mp-773314","Li4MnFe3O8","P1","-2.003","0.094","0.574","","16","3.353","187.29","true","triclinic",""
"mp-769449","Li4Mn5(Fe2O9)2","P2/m","-1.907","0.097","0.009","","62","4.09","660.89","false","monoclinic",""
"mp-774086","Li2Mn2FeO6","Cmce","-1.984","0.098","0.000","","22","3.861","237.041","true","orthorhombic",""
"mp-772699","Li4Mn5FeO12","C2/m","-1.998","0.1","0.000","","22","3.834","238.346","true","monoclinic",""
"mp-767665","Li2Mn3(FeO4)3","P1","-1.824","0.101","0.104","","20","3.937","227.001","true","triclinic",""
"mp-762813","Li2Mn5(FeO6)2","P21","-1.937","0.102","0.637","","42","4.371","450.003","true","monoclinic",""
"mp-765033","Li10Mn5Fe3O16","P1","-1.997","0.106","0.739","","34","4.037","315.732","true","triclinic",""
"mp-771089","Li4MnFe5O12","C2","-1.88","0.114","0.264","","22","3.959","232.339","true","monoclinic",""
"mp-849955","Li3Mn5(FeO6)2","P1","-1.949","0.129","0.009","","66","4.362","684.363","false","triclinic",""
"mp-763959","Li3Mn3FeO8","P1","-1.966","0.142","0.466","","30","4.296","285.602","true","triclinic",""
"mp-773335","Li4Mn3FeO8","R3m","-1.991","0.147","0.151","","16","4.204","148.691","true","trigonal",""
"mp-863869","Li3Mn3FeO8","C2/m","-1.959","0.148","0.190","","15","4.143","148.093","true","monoclinic",""
"mp-778025","Li3Mn2FeO6","C2/m","-1.976","0.155","0.415","","12","4.279","109.649","true","monoclinic",""
"mp-765100","Li8Mn6(FeO6)3","Cc","-1.95","0.17","0.000","","70","3.969","703.363","true","monoclinic",""
"mp-767363","Li3Mn2(FeO4)2","P1","-1.909","0.174","0.317","","15","4.236","145.193","true","triclinic",""
"mp-771896","Li5Mn8Fe11O32","Cm","-1.805","0.198","0.022","","56","4.453","596.809","false","monoclinic",""
"mp-775094","Li2MnFe3O8","R3m","-1.668","0.279","0.000","","14","4.384","138.014","true","trigonal",""
"mp-768038","Li2Mn3GaO8","R3m","-2.107","0.017","0.000","1","14","4.256","146.864","true","trigonal",""
"mp-585492","Li2MgMn3O8","P4332","-2.224","0","1.887","3","56","3.804","577.999","true","cubic",""
"mp-771684","LiMg2Mn3O8","R3m","-2.326","0.019","0.000","","14","3.874","149.326","true","trigonal",""
"mp-771629","Li2MgMn3O8","R3m","-2.205","0.02","1.389","","14","3.808","144.345","true","trigonal",""
"mp-771112","Li2Mn3NiO8","P4332","-1.919","0","1.321","55","56","4.269","568.455","true","cubic",""
"mp-773367","LiMnNiO4","Imma","-1.638","0.003","0.191","","14","4.384","139.831","true","orthorhombic",""
"mp-773961","Li8Mn15NiO32","R32","-2.031","0.003","0.001","","56","4.1","587.318","true","trigonal",""
"mp-769460","Li9Mn12Ni3O32","C2","-1.939","0.004","0.426","","56","4.115","568.893","true","monoclinic",""
"mp-764083","Li8MnNi7O16","P1","-1.491","0.007","0.158","","32","4.613","279.786","false","triclinic",""
"mp-771114","Li3Mn(NiO2)4","C2/m","-1.504","0.009","0.000","","16","5.063","143.823","true","monoclinic",""
"mp-853151","Li5Mn(Ni2O5)2","P1","-1.559","0.014","0.000","","20","4.558","176.473","true","triclinic",""
"mp-777117","Li2MnNi3O8","P1","-1.35","0.014","0.299","","56","4.532","546.52","false","triclinic",""
"mp-771234","Li5Mn2Ni3O10","P1","-1.757","0.016","0.208","","20","4.563","174.936","false","triclinic",""
"mp-769631","Li2Mn3NiO8","R3m","-1.903","0.016","0.548","","14","4.244","142.958","true","trigonal",""
"mp-774245","Li5Mn5(NiO6)2","C2","-1.938","0.02","0.530","","24","4.565","225.102","true","monoclinic",""
"mp-762583","Li3MnNi3O8","C2/m","-1.486","0.02","0.358","","15","4.481","140.747","false","monoclinic",""
"mp-772251","Li3Mn4NiO8","C2/m","-1.98","0.021","0.000","","16","4.602","154.156","true","monoclinic",""
"mp-765722","Li4Mn3NiO8","C2/m","-1.996","0.022","0.204","","16","4.274","147.346","true","monoclinic",""
"mp-771196","Li8Mn12Ni4O31","P1","-1.9","0.023","0.860","","55","4.187","573.334","true","triclinic",""
"mp-777280","Li3Mn(NiO3)2","C2/m","-1.681","0.025","0.000","","12","4.484","107.075","true","monoclinic",""
"mp-762749","Li6MnNi7O16","P1","-1.346","0.026","0.286","","60","4.593","551.998","false","triclinic",""
"mp-762958","Li6MnNi7O16","P1","-1.344","0.028","0.320","","60","4.626","548.071","false","triclinic",""
"mp-771810","Li2MnNi3O8","R3m","-1.335","0.028","0.000","","14","4.529","136.724","true","trigonal",""
"mp-771548","Li5Mn2Ni5O12","C2","-1.603","0.03","0.000","","24","4.973","210.384","true","monoclinic",""
"mp-762612","Li4Mn(Ni2O5)2","P1","-1.446","0.031","0.022","","38","4.587","345.7","false","triclinic",""
"mp-762635","Li3Mn3NiO8","P1","-1.94","0.034","0.378","","15","4.24","145.826","true","triclinic",""
"mp-763752","Li3Mn2(NiO4)2","P1","-1.73","0.035","0.000","","15","4.395","142.091","true","triclinic",""
"mp-762625","Li4Mn3(NiO4)3","P1","-1.689","0.036","0.290","","22","4.344","214.317","false","triclinic",""
"mp-765551","Li2MnNiO4","Imma","-1.836","0.037","0.256","","16","4.465","142.462","true","orthorhombic",""
"mp-868126","Li3Mn(NiO3)2","C2/c","-1.666","0.04","0.000","","24","4.327","221.932","true","monoclinic",""
"mp-762589","Li4Mn5(NiO6)2","P21","-1.891","0.04","0.630","","46","4.545","447.116","true","monoclinic",""
"mp-771720","Li3Mn2NiO6","C2/m","-1.928","0.042","0.000","","12","4.344","109.094","true","monoclinic",""
"mp-771714","Li3MnNi3O8","R3m","-1.463","0.043","0.000","","15","4.425","142.55","true","trigonal",""
"mp-762624","Li2Mn(NiO3)2","C2","-1.502","0.046","0.486","","11","4.474","104.746","false","monoclinic",""
"mp-762588","Li4Mn2Ni5O12","P21","-1.507","0.048","0.124","","46","4.892","423.049","false","monoclinic",""
"mp-762850","Li2MnNi3O8","C2/m","-1.312","0.052","0.130","","14","4.471","138.493","true","monoclinic",""
"mp-772391","Li2Mn3NiO8","P63mc","-1.867","0.052","1.030","","28","4.351","278.926","true","hexagonal",""
"mp-770019","LiMn3(NiO4)2","Imm2","-1.67","0.053","0.000","","14","4.699","147.405","true","orthorhombic",""
"mp-775057","Li2Mn(NiO3)2","Cmce","-1.495","0.054","0.761","","22","4.343","215.786","true","orthorhombic",""
"mp-762610","Li2MnNi3O8","P1","-1.306","0.057","0.000","","14","4.482","138.156","false","triclinic",""
"mp-775284","Li2Mn3NiO8","P213","-1.86","0.059","1.529","","56","4.256","570.245","true","cubic",""
"mp-779228","Li4MnNi5O12","C2","-1.312","0.06","0.461","","22","4.403","214.28","true","monoclinic",""
"mp-762611","Li3Mn2Ni5O12","C2","-1.405","0.061","0.314","","22","4.888","209.305","true","monoclinic",""
"mp-762854","Li4Mn2Ni3O10","P1","-1.624","0.061","0.018","","19","4.484","175.422","false","triclinic",""
"mp-543105","LiMn2NiO6","C2/c","-1.655","0.063","1.342","","20","3.961","227.636","true","monoclinic",""
"mp-769859","Li4Mn5Ni3O16","Cm","-1.716","0.064","0.000","","28","4.49","271.649","true","monoclinic",""
"mp-762753","Li3Mn5(NiO6)2","P1","-1.824","0.07","0.494","","66","4.63","650.887","true","triclinic",""
"mp-773349","Li5Mn3(NiO5)2","P1","-1.859","0.072","0.000","","20","4.307","183.847","true","triclinic",""
"mp-762829","LiMn3NiO8","C2/m","-1.666","0.073","0.111","","13","4.074","146.107","true","monoclinic",""
"mp-762633","LiMn2NiO6","P1","-1.644","0.074","0.759","","10","4.248","106.137","true","triclinic",""
"mp-565580","Li2Mn2NiO6","Cmce","-1.827","0.076","1.499","","22","4.068","227.318","true","orthorhombic",""
"mp-762672","Li2Mn2NiO6","P1","-1.826","0.076","0.324","","33","4.277","324.316","false","triclinic",""
"mp-763636","Li2Mn3NiO8","C2/m","-1.842","0.077","0.487","","14","4.207","144.227","false","monoclinic",""
"mp-763980","Li6Mn5Ni3O16","Cm","-1.814","0.081","0.258","","30","4.506","275.826","true","monoclinic",""
"mp-775319","Li2Mn3NiO8","R3m","-1.837","0.083","0.771","","14","4.26","142.418","true","trigonal",""
"mp-773286","Li4Mn5NiO12","C2/m","-1.919","0.092","0.015","","22","3.934","233.487","true","monoclinic",""
"mp-764043","Li3Mn3NiO8","Cc","-1.876","0.098","0.363","","30","4.416","280.034","true","monoclinic",""
"mp-771665","Li2MnNiO4","P2/m","-1.768","0.105","0.296","","8","4.462","71.276","true","monoclinic",""
"mp-863850","Li3Mn3NiO8","C2/m","-1.851","0.123","0.000","","15","4.206","146.981","true","monoclinic",""
"mp-37620","LiMnO2","I41/amd","-2.158","0","0.000","157","8","4.157","75.001","true","tetragonal",""
"mp-18988","Li2MnO3","C2/m","-2.186","0","1.774","","12","3.723","104.2","true","monoclinic",""
"mp-691115","Li4Mn5O12","C2/c","-2.06","0","1.000","","42","3.896","421.527","true","monoclinic",""
"mp-698582","Li5Mn7O16","Pnnm","-2.073","0","0.779","","56","3.898","575.326","true","orthorhombic",""
"mp-770533","Li6MnO4","P42/nmc","-2.061","0","2.619","","22","2.502","213.113","true","tetragonal",""
"mp-775236","LiMnO2","C2/m","-2.157","0.001","1.251","","4","4.059","38.406","true","monoclinic",""
"mp-705804","LiMnO2","Cm","-2.156","0.002","1.323","","80","4.006","778.247","false","monoclinic",""