"Materials Id","Formula","Spacegroup","Formation Energy (eV)","E Above Hull (eV)","Band Gap (eV)","Count","Nsites","Density (gm/cc)","Volume","Has Bandstructure","Crystal System",""
"mp-769593","Li4VCr3O8","P1","-2.418","0.005","0.000","","32","4.038","298.318","true","triclinic",""
"mp-769605","Li4VCr3O8","P1","-2.418","0.005","1.510","","32","4.055","297.046","true","triclinic",""
"mp-769595","Li4VCr3O8","P1","-2.418","0.006","1.608","","32","4.058","296.821","true","triclinic",""
"mp-776136","Li2VCrO4","C2/m","-2.44","0.006","0.975","","8","4.001","75.051","true","monoclinic",""
"mp-769608","Li4VCr3O8","P1","-2.417","0.006","1.931","","32","4.055","297.052","true","triclinic",""
"mp-769611","Li4V3CrO8","P1","-2.462","0.006","1.937","","32","3.961","302.308","true","triclinic",""
"mp-769614","Li4V3CrO8","P1","-2.462","0.007","1.872","","32","3.955","302.803","true","triclinic",""
"mp-769617","Li2VCrO4","P1","-2.439","0.007","1.269","","24","3.99","225.764","true","triclinic",""
"mp-774288","Li2V3CrO8","P21","-2.483","0.007","1.085","","56","3.841","599.523","true","monoclinic",""
"mp-769615","Li4V3CrO8","P1","-2.462","0.007","0.000","","32","3.949","303.251","true","triclinic",""
"mp-769635","Li2VCrO4","P1","-2.439","0.007","1.319","","24","3.987","225.936","true","triclinic",""
"mp-775825","Li2VCrO4","P2/m","-2.439","0.007","0.927","","8","3.999","75.087","true","monoclinic",""
"mp-769628","Li4V3CrO8","P1","-2.462","0.007","0.000","","32","3.958","302.555","true","triclinic",""
"mp-768055","Li2VCrO4","P2/c","-2.439","0.007","1.717","","16","3.995","150.315","true","monoclinic",""
"mp-769641","Li2VCrO4","C2/c","-2.439","0.008","1.628","","16","3.995","150.333","true","monoclinic",""
"mp-769620","Li2VCrO4","P1","-2.438","0.008","1.932","","24","3.992","225.664","true","triclinic",""
"mp-768057","Li2VCrO4","P1","-2.438","0.008","1.773","","16","3.996","150.267","true","triclinic",""
"mp-768048","Li4VCr3O8","P1","-2.414","0.009","1.920","","16","4.036","149.222","true","triclinic",""
"mp-868630","Li4V3CrO8","P1","-2.459","0.009","1.031","","32","3.943","303.72","true","triclinic",""
"mp-774098","LiVCrO4","Imma","-2.446","0.009","1.153","","14","3.861","149.566","true","orthorhombic",""
"mp-763906","Li2VCrO4","Imma","-2.435","0.011","1.735","","16","4.007","149.876","true","orthorhombic",""
"mp-769652","Li2VCrO4","C2/m","-2.433","0.013","1.532","","16","3.972","151.191","true","monoclinic",""
"mp-768054","Li4V3CrO8","P1","-2.455","0.013","0.964","","16","3.93","152.348","true","triclinic",""
"mp-775729","Li4V3CrO8","P2/m","-2.455","0.014","0.986","","16","3.939","152.017","true","monoclinic",""
"mp-868634","Li2VCrO4","P1","-2.431","0.015","1.319","","24","3.98","226.312","true","triclinic",""
"mp-771655","Li3V2CrO6","C2/m","-2.44","0.021","1.887","","12","3.967","113.298","true","monoclinic",""
"mp-777002","Li4V5Cr3O16","Cm","-2.45","0.023","1.091","","28","3.988","289.153","true","monoclinic",""
"mp-778232","Li2V3Cr2O12","Pbcn","-2.334","0.025","1.986","","76","2.93","1048.843","false","orthorhombic",""
"mp-777666","Li2V3CrO8","Cc","-2.465","0.025","1.123","","28","3.99","288.586","true","monoclinic",""
"mp-853131","Li2V3CrO8","R3m","-2.459","0.03","0.000","","14","3.897","147.724","true","trigonal",""
"mp-769583","Li3VCr3O8","P1","-2.393","0.035","1.509","","30","3.953","298.863","true","triclinic",""
"mp-775047","Li2VCrO4","I4m2","-2.408","0.038","0.754","","8","4.065","73.855","true","tetragonal",""
"mp-778301","Li4V3Cr5O16","Cm","-2.398","0.04","0.773","","28","4.047","285.803","true","monoclinic",""
"mp-771618","Li5V3Cr2O10","P1","-2.415","0.04","1.706","","20","3.987","188.051","true","triclinic",""
"mp-777000","Li3V4CrO8","C2/m","-2.343","0.043","0.618","","16","4.237","158.57","true","monoclinic",""
"mp-769596","Li3V3CrO8","P1","-2.444","0.044","0.902","","30","3.891","301.846","true","triclinic",""
"mp-780821","Li3VCr3O8","C2/m","-2.381","0.048","0.228","","15","3.986","148.201","true","monoclinic",""
"mp-850093","Li2VCr2O6","C2/m","-2.389","0.05","1.309","","33","3.915","336.94","true","monoclinic",""
"mp-850080","Li4V3Cr3O12","P1","-2.408","0.053","1.180","","22","3.883","226.022","true","triclinic",""
"mp-850135","Li3V2Cr2O8","P1","-2.405","0.055","0.843","","15","3.948","149.166","true","triclinic",""
"mp-776068","LiVCrO4","P1","-2.399","0.056","1.367","","21","3.828","226.305","true","triclinic",""
"mp-774012","Li5V5Cr2O12","C2","-2.351","0.057","0.282","","24","4.217","230.507","true","monoclinic",""
"mp-780923","Li4V5Cr2O12","P21","-2.383","0.059","0.948","","46","4.23","454.151","true","monoclinic",""
"mp-769590","Li2V3CrO8","P1","-2.43","0.06","0.990","","28","3.81","302.198","true","triclinic",""
"mp-849330","Li2V2CrO6","C2/m","-2.42","0.061","0.000","","33","3.865","339.943","true","monoclinic",""
"mp-772575","Li9V12Cr7O48","P1","-2.28","0.061","0.009","","76","3.374","888.594","false","triclinic",""
"mp-772377","Li2VCr3O8","P63mc","-2.352","0.061","0.780","","28","4.081","283.868","true","hexagonal",""
"mp-772560","Li9V12Cr7O48","P1","-2.279","0.062","0.471","","76","3.403","881.219","false","triclinic",""
"mp-764983","Li3VCr3O8","R3m","-2.363","0.065","1.507","","15","4.008","147.391","true","trigonal",""
"mp-771672","Li3VCr3O8","R3m","-2.362","0.066","1.258","","15","3.983","148.298","true","trigonal",""
"mp-849964","Li2V3CrO8","Cm","-2.421","0.069","1.450","","14","3.772","152.621","true","monoclinic",""
"mp-780925","Li4V3Cr2O10","P1","-2.395","0.074","1.037","","19","3.943","187.238","true","triclinic",""
"mp-771624","Li2VCr2O6","Cmce","-2.364","0.076","1.800","","22","3.759","233.992","true","orthorhombic",""
"mp-865139","LiV2CrO6","R3","-2.389","0.076","0.584","","10","4.214","101.209","true","trigonal",""
"mp-764037","Li10V5Cr3O16","Cm","-2.291","0.077","1.130","","34","3.926","311.319","true","monoclinic",""
"mp-765717","Li5VCr3O8","P63mc","-2.255","0.081","1.253","","34","3.967","309.466","true","hexagonal",""
"mp-764013","Li5V3CrO8","Cc","-2.294","0.084","0.718","","34","3.939","309.847","true","monoclinic",""
"mp-781740","Li2V3CrO8","P1","-2.406","0.084","0.614","","14","3.796","151.652","true","triclinic",""
"mp-781743","Li3V5Cr2O12","C2","-2.393","0.085","0.413","","22","4.171","227.528","true","monoclinic",""
"mp-853248","LiVCrO4","Imma","-2.37","0.085","1.252","","14","3.928","147.007","true","orthorhombic",""
"mp-769589","LiV3CrO8","P1","-2.381","0.09","1.179","","26","3.697","305.175","true","triclinic",""
"mp-764149","Li5V2Cr2O8","C2/m","-2.267","0.091","0.732","","17","3.875","157.957","true","monoclinic",""
"mp-769577","Li2VCr3O8","P1","-2.322","0.092","0.810","","28","3.861","300.015","true","triclinic",""
"mp-850150","Li3V3Cr2O10","P1","-2.381","0.093","1.166","","18","3.821","190.189","true","triclinic",""
"mp-782662","Li2V5Cr2O12","P21","-2.39","0.094","1.283","","42","4.202","446.262","true","monoclinic",""
"mp-764096","Li10V3Cr5O16","P1","-2.251","0.096","0.491","","34","3.99","307.198","false","triclinic",""
"mp-849360","LiV2CrO6","C2/m","-2.364","0.101","1.122","","30","3.731","342.882","true","monoclinic",""
"mp-765682","Li3V3CrO8","Cm","-2.385","0.103","0.188","","15","3.722","157.764","true","monoclinic",""
"mp-764160","Li5VCr3O8","R3m","-2.233","0.103","0.620","","17","3.869","158.625","true","trigonal",""
"mp-775553","Li2V3CuO8","P212121","-2.255","0.038","0.697","16","56","3.988","596.698","true","orthorhombic",""
"mp-772122","Li3V4CuO12","C2","-2.263","0.039","1.129","","20","3.121","255.441","true","monoclinic",""
"mp-772248","LiV4CuO12","C2","-2.095","0.043","0.387","","18","3.13","247.357","true","monoclinic",""
"mp-505131","LiVCuO4","Imma","-1.968","0.047","0.260","","14","4.117","149.595","true","orthorhombic",""
"mp-774942","Li2V3CuO8","P43","-2.246","0.048","0.570","","56","3.975","598.679","true","tetragonal",""
"mp-775500","Li11V12(CuO4)12","C2/m","-1.944","0.049","0.086","","83","4.117","894.722","false","monoclinic",""
"mp-775734","Li5V6(CuO4)6","P21/c","-1.918","0.05","0.000","","82","4.111","893.25","false","monoclinic",""
"mp-775190","Li2V3CuO8","R3m","-2.227","0.067","0.000","","14","4.091","145.409","true","trigonal",""
"mp-853230","Li2V3CuO8","R3m","-2.222","0.071","0.000","","14","4.003","148.619","true","trigonal",""
"mp-764692","LiVCuO4","Cmcm","-1.94","0.076","0.000","","14","3.966","155.257","true","orthorhombic",""
"mp-776749","Li2V3CuO8","Cc","-2.212","0.081","0.000","","28","4.05","293.793","true","monoclinic",""
"mp-775536","LiV4CuO12","P1","-2.054","0.085","0.350","","18","3.927","197.129","true","triclinic",""
"mp-776487","Li2V5CuO12","C2","-2.26","0.091","0.540","","20","3.391","256.698","true","monoclinic",""
"mp-777917","Li4V5Cu3O16","Cm","-2.061","0.099","0.000","","28","4.166","290.602","true","monoclinic",""
"mp-775214","LiVCuO4","P4322","-1.915","0.101","0.000","","28","4.252","289.666","true","tetragonal",""
"mp-771628","LiVCuO4","Imma","-1.908","0.108","0.000","","14","4.088","150.649","true","orthorhombic",""
"mp-775234","Li3V3(FeO6)2","P21/c","-2.3","0.009","2.456","54","80","3.104","1021.299","false","monoclinic",""
"mp-765728","Li4VFe3O8","R3m","-2.184","0.009","0.676","","16","4.099","151.606","true","trigonal",""
"mp-775342","LiVFeO4","Cmcm","-2.279","0.01","2.201","","14","3.619","163.11","true","orthorhombic",""
"mp-776146","Li2V3FeO8","P21","-2.396","0.011","1.022","","56","3.894","597.877","true","monoclinic",""
"mp-765701","Li4V3FeO8","R3m","-2.378","0.013","0.754","","16","3.972","152.338","true","trigonal",""
"mp-773535","LiVFeO4","Imma","-2.274","0.015","1.997","","14","3.892","151.665","true","orthorhombic",""
"mp-775461","Li2V3FeO8","P43212","-2.387","0.02","1.161","","56","3.851","604.668","true","tetragonal",""
"mp-770493","Li5V2Fe5O12","C2","-2.138","0.021","1.095","","24","4.39","229.887","true","monoclinic",""
"mp-770982","Li2VFeO4","P1","-2.27","0.026","1.162","","24","4.029","228.304","true","triclinic",""
"mp-775524","Li2V3FeO8","Cmc21","-2.376","0.031","1.246","","28","3.982","292.364","true","orthorhombic",""
"mp-775811","LiVFeO4","P4322","-2.258","0.032","1.113","","28","4.003","294.883","true","tetragonal",""
"mp-776874","Li2V3(FeO6)2","Pbcn","-2.191","0.033","2.373","","76","2.89","1081.256","false","orthorhombic",""
"mp-775175","LiVFeO4","Imma","-2.257","0.033","1.150","","14","3.894","151.593","true","orthorhombic",""
"mp-773233","Li5V2Fe3O10","P1","-2.225","0.033","1.023","","20","4.103","187.84","true","triclinic",""
"mp-773995","Li5V5(FeO6)2","C2","-2.313","0.036","1.312","","24","4.265","230.911","false","monoclinic",""
"mp-762682","Li4V2Fe5O12","P21","-2.109","0.048","0.901","","46","4.4","453.556","true","monoclinic",""
"mp-850103","Li4V5(FeO6)2","P21","-2.309","0.05","1.398","","46","4.261","456.861","true","monoclinic",""
"mp-764205","Li3V(FeO3)2","Cmc21","-2.18","0.052","1.171","","24","3.878","239.323","true","orthorhombic",""
"mp-771108","Li3V(FeO2)4","C2/m","-2.039","0.053","0.107","","16","4.639","151.458","true","monoclinic",""
"mp-762757","Li4V2Fe3O10","P1","-2.204","0.057","0.784","","38","4.041","375.751","true","triclinic",""
"mp-773273","Li3VFe3O8","R3m","-2.138","0.059","1.333","","15","4.003","152.377","true","trigonal",""
"mp-773776","Li2VFe3O8","P4332","-2.106","0.06","1.304","","56","3.924","610.013","true","cubic",""
"mp-780819","Li4V3FeO10","P4m2","-2.36","0.063","1.078","","18","3.155","208.661","true","tetragonal",""
"mp-776768","Li4V5Fe3O16","P1","-2.286","0.063","0.652","","28","4.022","291.514","true","triclinic",""
"mp-763749","Li3V2Fe3O10","P1","-2.191","0.064","1.299","","18","3.92","190.707","true","triclinic",""
"mp-771748","Li2VFe3O8","R3m","-2.102","0.064","0.952","","14","3.927","152.369","true","trigonal",""
"mp-770674","Li9V12Fe7O48","P1","-2.15","0.064","0.027","","76","3.365","904.324","false","triclinic",""
"mp-850893","Li9V12Fe7O48","P1","-2.149","0.065","0.052","","76","3.334","912.783","false","triclinic",""
"mp-772417","Li4V3Fe5O16","Cm","-2.166","0.065","0.996","","28","4.068","292.173","true","monoclinic",""
"mp-773994","Li2V3FeO8","R3m","-2.342","0.065","0.000","","14","3.917","148.604","true","trigonal",""
"mp-773355","Li3V(FeO3)2","C2/m","-2.166","0.066","0.000","","12","4.074","113.9","true","monoclinic",""
"mp-776265","Li5V3(FeO5)2","P1","-2.267","0.066","0.265","","20","4.016","189.893","false","triclinic",""
"mp-763759","Li4V3(FeO5)2","P1","-2.276","0.068","1.316","","19","3.951","190.062","false","triclinic",""
"mp-763971","Li3VFe3O8","P63mc","-2.13","0.068","1.216","","30","4.201","290.385","true","hexagonal",""
"mp-769963","Li2VFeO5","P4/nmm","-2.248","0.074","1.891","","18","3.253","204.864","true","tetragonal",""
"mp-773243","Li4VFe3O8","P1","-2.118","0.075","1.374","","16","3.281","189.402","true","triclinic",""
"mp-775471","Li3V4FeO12","C2","-2.328","0.076","0.000","","20","3.03","258.93","true","monoclinic",""
"mp-763659","Li3V2(FeO4)2","P1","-2.224","0.079","0.915","","15","4.016","149.843","true","triclinic",""
"mp-775660","Li4V5(Fe2O9)2","Pbam","-2.227","0.082","1.377","","62","3.805","692.81","true","orthorhombic",""
"mp-762710","Li3VFe3O8","C2/m","-2.114","0.084","0.016","","15","4.038","151.038","true","monoclinic",""
"mp-771840","Li3V2FeO6","C2/m","-2.273","0.085","1.077","","12","4.061","112.252","true","monoclinic",""
"mp-774133","LiV2FeO6","C2/c","-2.261","0.088","0.970","","20","3.496","247.646","true","monoclinic",""
"mp-775775","Li3V4FeO8","C2/m","-2.271","0.093","0.826","","16","4.328","156.699","true","monoclinic",""
"mp-762685","Li3V3(FeO5)2","P1","-2.252","0.093","1.422","","18","3.851","192.037","true","triclinic",""
"mp-771072","Li3V3FeO8","C2/m","-2.268","0.14","0.941","","15","4.033","147.183","false","monoclinic",""
"mp-773440","Li2V3FeO8","R3m","-2.256","0.151","0.000","","14","3.999","145.557","true","trigonal",""
"mp-868647","Li2VFeO4","I4m2","-2.137","0.158","0.000","","8","4.141","74.056","true","tetragonal",""
"mp-863880","Li6VFe5O12","C2","-1.988","0.166","0.798","","24","4.185","223.709","true","monoclinic",""
"mp-765706","Li2VFeO4","C2/m","-2.128","0.168","0.949","","16","4.2","146.016","true","monoclinic",""
"mp-769914","Li2VFe3O8","Cmc21","-1.976","0.19","1.318","","28","4.214","283.987","true","orthorhombic",""
"mp-767206","Li2V2FeO6","C2/c","-2.173","0.204","1.006","","22","3.93","226.15","true","monoclinic",""
"mp-771747","Li2V3FeO8","Cm","-2.201","0.206","0.000","","14","3.884","149.877","true","monoclinic",""
"mp-762806","Li2V2FeO6","P1","-2.161","0.216","0.194","","33","4.066","327.849","true","triclinic",""
"mp-762760","Li2V(FeO3)2","C2/m","-1.89","0.339","1.473","","33","4.243","319.93","false","monoclinic",""
"mp-569876","LiMgVO4","Cmcm","-2.677","0","3.483","3","14","3.084","157.429","true","orthorhombic",""
"mp-565332","LiMg4V3O12","I42d","-2.739","0.002","3.300","","40","3.213","464.023","true","tetragonal",""
"mp-771733","Li3MgV8O16","Cm","-2.539","0.035","0.281","","28","3.859","304.953","true","monoclinic",""
"mp-776234","Li2MnV4FeO12","C2","-2.319","0.064","1.356","2","20","3.269","264.365","true","monoclinic",""
"mp-764627","Li4Mn3V2Fe3O16","P1","-2.133","0.072","0.808","","28","4.129","288.747","true","triclinic",""
"mp-19107","LiMnVO4","Cmcm","-2.386","0","2.218","45","14","3.527","166.475","true","orthorhombic",""
"mp-775327","Li2MnV3O8","P213","-2.447","0.009","1.566","","56","3.779","614.604","true","cubic",""
"mp-775199","LiMnVO4","Pnma","-2.373","0.014","2.140","","28","3.44","341.432","true","orthorhombic",""
"mp-775278","Li2MnV3O8","P31c","-2.439","0.017","1.346","","28","3.839","302.481","true","trigonal",""
"mp-775642","Li3Mn2V3O12","P21/c","-2.317","0.021","1.055","","80","3.076","1026.867","false","monoclinic",""
"mp-868619","LiMnVO4","Imma","-2.363","0.023","1.644","","14","3.773","155.645","true","orthorhombic",""
"mp-775106","Li2MnV3O8","R3m","-2.423","0.032","1.231","","14","3.801","152.757","true","trigonal",""
"mp-765660","Li4Mn2V3O12","P21/c","-2.36","0.033","0.706","","84","3.038","1054.657","false","monoclinic",""
"mp-763955","Li4MnV3O8","C2/m","-2.398","0.034","0.602","","16","3.96","152.417","true","monoclinic",""
"mp-775492","Li2MnV3O8","P212121","-2.421","0.035","0.962","","56","3.82","607.922","true","orthorhombic",""
"mp-851270","Li9Mn7V12O48","P1","-2.225","0.036","0.512","","76","3.447","879.858","true","triclinic",""
"mp-772658","Li9Mn7V12O48","P1","-2.218","0.043","0.158","","76","3.447","879.781","false","triclinic",""
"mp-775779","Li3MnV4O8","C2/m","-2.352","0.044","1.265","","16","4.313","156.907","true","monoclinic",""
"mp-773501","Li3MnV2O6","C2/m","-2.368","0.046","0.351","","12","3.959","114.775","true","monoclinic",""
"mp-849953","Li2Mn3VO8","P21","-2.193","0.048","0.500","","56","3.923","605.588","true","monoclinic",""
"mp-775533","Li5Mn2V5O12","C2","-2.354","0.05","0.841","","24","4.162","235.897","true","monoclinic",""
"mp-764142","Li5MnV3O8","P4332","-2.3","0.055","1.776","","68","3.798","647.893","true","cubic",""
"mp-771627","Li5Mn3V2O10","P1","-2.302","0.056","0.743","","20","3.942","194.359","false","triclinic",""
"mp-769823","Li5Mn5V2O12","C2","-2.237","0.061","0.258","","24","4.276","234.279","true","monoclinic",""
"mp-774424","LiMnVO4","P4322","-2.325","0.061","1.369","","28","3.796","309.41","true","tetragonal",""
"mp-781772","Li2Mn3VO8","Cmc21","-2.178","0.063","0.382","","28","4.102","289.542","true","orthorhombic",""
"mp-770994","Li2MnVO4","P1","-2.315","0.063","0.713","","24","3.982","229.879","true","triclinic",""
"mp-775229","Li3MnV4O12","C2","-2.374","0.063","0.000","","20","2.993","261.583","true","monoclinic",""
"mp-771675","Li2MnVO4","P2/m","-2.313","0.065","0.000","","8","4.055","75.259","true","monoclinic",""
"mp-767267","Li2MnVO4","C2/c","-2.313","0.066","0.752","","16","3.988","153.022","true","monoclinic",""
"mp-773187","Li4Mn3V5O16","P1","-2.353","0.067","0.798","","28","4.01","291.197","true","triclinic",""
"mp-773194","Li4Mn5V3O16","P1","-2.249","0.068","0.616","","28","4.02","293.768","true","triclinic",""
"mp-771987","Li3MnV4O12","P1","-2.364","0.073","1.159","","20","3.912","200.156","true","triclinic",""
"mp-762560","Li4Mn2V5O12","P21","-2.357","0.073","1.285","","46","4.134","469.449","false","monoclinic",""
"mp-774093","Li2MnV3O8","R3m","-2.382","0.073","0.000","","14","3.928","147.819","true","trigonal",""
"mp-773098","Li4Mn3VO8","R3","-2.222","0.075","0.824","","16","4.01","153.841","false","trigonal",""
"mp-773470","Li5Mn2V3O10","P1","-2.325","0.075","0.864","","20","3.931","193.232","true","triclinic",""
"mp-764265","Li10Mn3V5O16","P1","-2.251","0.08","0.259","","34","3.895","317.543","false","triclinic",""
"mp-771401","Li3Mn4VO8","C2/m","-2.174","0.083","0.000","","16","4.353","160.023","true","monoclinic",""
"mp-772057","Li3Mn2VO6","C2/m","-2.259","0.084","0.663","","12","3.96","116.422","true","monoclinic",""
"mp-772730","Li2Mn3VO8","R3m","-2.156","0.085","0.000","","14","3.99","148.83","true","trigonal",""
"mp-773230","Li3MnV3O8","R3m","-2.385","0.088","0.758","","15","3.933","150.554","true","trigonal",""
"mp-771802","Li4MnV3O12","P2","-2.211","0.092","0.320","","20","3.524","201.431","true","monoclinic",""
"mp-764279","Li3MnV3O8","R3m","-2.378","0.095","0.841","","15","3.954","149.734","true","trigonal",""
"mp-772054","LiMnVO4","Imma","-2.29","0.097","0.000","","14","3.927","149.529","true","orthorhombic",""
"mp-776140","Li2MnV5O12","C2","-2.367","0.099","0.000","","20","3.314","258.307","true","monoclinic",""
"mp-771529","Li4MnV3O8","P1","-2.329","0.102","0.935","","16","3.142","192.103","true","triclinic",""
"mp-762879","Li2MnV2O6","P1","-2.341","0.104","0.817","","22","3.887","227.887","true","triclinic",""
"mp-868354","Li3MnV3O8","Cm","-2.361","0.112","0.407","","15","3.678","160.981","false","monoclinic",""
"mp-762584","Li3Mn2V5O12","C2","-2.34","0.118","0.480","","22","4.108","233.401","true","monoclinic",""
"mp-771631","LiVNiO4","Imma","-2.039","0.001","2.558","19","14","4.193","143.017","true","orthorhombic",""