"Materials Id","Formula","Spacegroup","Formation Energy (eV)","E Above Hull (eV)","Band Gap (eV)","Count","Nsites","Density (gm/cc)","Volume","Has Bandstructure","Crystal System",""
"mp-780215","LiVNiO4","Cmcm","-2.031","0.009","3.004","","14","3.915","153.173","false","orthorhombic",""
"mp-769574","Li7V6Ni5O24","P1","-2.068","0.017","0.000","","42","4.011","427.117","false","triclinic",""
"mp-772343","LiVNiO4","Pnma","-2.014","0.026","2.856","","28","3.889","308.424","true","orthorhombic",""
"mp-777896","Li2V3NiO8","P31c","-2.256","0.039","1.648","","28","4.043","290.302","true","trigonal",""
"mp-772005","Li3V4NiO12","P1","-2.246","0.064","0.078","","20","3.987","197.939","true","triclinic",""
"mp-767023","Li2VNiO4","Imma","-2.08","0.069","1.675","","16","4.265","145.999","true","orthorhombic",""
"mp-771792","Li3V4NiO12","C2","-2.24","0.07","0.000","","20","3.133","251.886","true","monoclinic",""
"mp-771664","Li2VNiO4","P2/m","-2.078","0.072","1.701","","8","4.26","73.099","true","monoclinic",""
"mp-769829","Li5V2Ni5O12","C2","-1.791","0.075","1.223","","24","4.78","216.101","true","monoclinic",""
"mp-776203","Li2V3NiO8","Cm","-2.212","0.082","0.000","","14","3.888","150.914","true","monoclinic",""
"mp-773925","Li4V3NiO8","C2/m","-2.278","0.083","0.000","","16","4.074","149.712","true","monoclinic",""
"mp-770620","Li4VNi3O8","R3m","-1.751","0.083","0.000","","16","4.423","143.711","true","trigonal",""
"mp-781051","Li5V2Ni3O10","P1","-1.958","0.095","0.307","","20","4.348","180.513","true","triclinic",""
"mp-771667","LiV2NiO6","C2/c","-2.076","0.098","0.000","","20","3.519","248.662","true","monoclinic",""
"mp-776323","Li2V5NiO12","C2","-2.247","0.105","0.770","","20","3.546","243.168","true","monoclinic",""
"mp-777318","Li3V2NiO6","C2/m","-2.189","0.109","0.000","","12","4.195","109.795","true","monoclinic",""
"mp-775091","Li5V5(NiO6)2","C2","-2.197","0.113","1.354","","24","4.396","226.202","true","monoclinic",""
"mp-851083","Li5V3(NiO5)2","P1","-2.107","0.132","0.000","","20","4.106","188.032","true","triclinic",""
"mp-19219","Li3VO4","Pmn21","-2.514","0","4.034","85","16","2.536","177.781","true","orthorhombic",""
"mp-19340","LiVO2","R3m","-2.485","0","1.786","","4","3.926","38.02","true","trigonal",""
"mp-19440","LiVO3","C2/c","-2.44","0","2.822","","20","2.394","293.783","true","monoclinic",""
"mp-777667","LiV2O5","Pnma","-2.465","0","1.628","","32","3.184","393.874","true","orthorhombic",""
"mp-583094","Li3VO4","Pnma","-2.512","0.003","3.939","","32","2.468","365.392","true","orthorhombic",""
"mp-540700","LiV3O8","P21/m","-2.358","0.003","1.885","","24","3.334","286.632","false","monoclinic",""
"mp-766239","Li7V5O12","P1","-2.482","0.013","0.770","","24","3.695","222.611","false","triclinic",""
"mp-761629","Li17V16O32","Cm","-2.446","0.014","0.645","","65","3.911","613.48","true","monoclinic",""
"mp-767856","Li5V12O32","Cm","-2.373","0.015","0.000","","49","3.368","570.961","true","monoclinic",""
"mp-774192","Li2VO3","P1","-2.485","0.02","1.696","","12","3.46","108.296","true","triclinic",""
"mp-19373","LiVO3","C2/c","-2.42","0.02","3.034","","20","2.823","249.136","true","monoclinic",""
"mp-776871","Li2V5O12","Pbcn","-2.448","0.02","0.477","","76","2.876","1063.662","false","orthorhombic",""
"mp-868657","Li2VO3","C2/m","-2.482","0.022","1.750","","12","3.455","108.449","true","monoclinic",""
"mp-771608","Li3V6O16","Pm","-2.392","0.022","0.000","","25","3.355","288.307","true","monoclinic",""
"mp-19408","LiV2O5","Pnma","-2.441","0.024","1.153","","32","3.181","394.267","true","orthorhombic",""
"mp-698647","LiVO2","P222","-2.461","0.025","0.081","","32","4.01","297.75","true","orthorhombic",""
"mp-775331","LiVO2","Imma","-2.46","0.026","0.669","","8","3.948","75.617","true","orthorhombic",""
"mp-776204","LiV3O4","Cmmm","-2.272","0.026","0.000","","8","4.638","80.115","true","orthorhombic",""
"mp-776036","LiV6O15","P21/c","-2.341","0.026","0.643","","88","3.327","1103.255","false","monoclinic",""
"mp-777033","Li9V19O48","P1","-2.423","0.027","1.240","","76","3.31","902.14","false","triclinic",""
"mp-773356","Li8VO6","P1","-2.217","0.027","1.783","","15","2.649","126.903","true","triclinic",""
"mp-777032","Li3V5O12","P21/c","-2.471","0.028","1.555","","80","3.003","1034.143","false","monoclinic",""
"mp-776654","Li7V5O12","C2","-2.467","0.028","1.155","","24","3.77","218.168","true","monoclinic",""
"mp-771530","LiV3O8","Pm","-2.332","0.029","1.768","","24","3.295","290.007","true","monoclinic",""
"mp-776037","LiV4O10","P1","-2.366","0.03","0.402","","90","3.266","1130.977","false","triclinic",""
"mp-764746","Li5V7O12","C2","-2.392","0.031","0.219","","24","4.264","227.126","true","monoclinic",""
"mp-762252","Li4V7O12","P21","-2.432","0.032","0.919","","46","4.228","452.772","true","monoclinic",""
"mp-764772","LiVO2","P1","-2.453","0.033","1.249","","20","3.926","190.068","true","triclinic",""
"mp-19394","LiV2O4","Fd3m","-2.487","0.035","0.000","","14","3.902","147.099","true","cubic",""
"mp-762453","Li11V16O32","P1","-2.479","0.036","0.952","","59","3.795","614.045","true","triclinic",""
"mp-775075","LiV3O8","Pm","-2.325","0.037","1.841","","24","3.14","304.34","true","monoclinic",""
"mp-765490","LiV24O58","P1","-2.316","0.039","0.098","","83","3.386","1057.946","false","triclinic",""
"mp-774369","Li3V12O29","Cm","-2.385","0.039","0.000","","44","3.434","529.96","true","monoclinic",""
"mp-775458","LiV18O44","Pm","-2.308","0.041","0.000","","63","3.36","804.468","false","monoclinic",""
"mp-773325","Li2V3O8","P212121","-2.413","0.042","1.630","","52","3.369","580.99","true","orthorhombic",""
"mp-762292","Li4V5O10","P1","-2.461","0.043","1.263","","19","3.866","190.069","true","triclinic",""
"mp-773362","Li2V6O15","C2/m","-2.377","0.043","0.070","","23","3.356","276.836","true","monoclinic",""
"mp-773728","Li5V18O44","Pm","-2.379","0.043","0.242","","67","3.423","803.18","false","monoclinic",""
"mp-771611","Li5V4O8","R3m","-2.342","0.046","0.881","","17","3.869","157.295","true","trigonal",""
"mp-764771","Li6V5O12","P1","-2.465","0.046","0.677","","23","3.735","217.1","true","triclinic",""
"mp-765419","Li6V5O12","P1","-2.464","0.047","0.696","","46","3.635","446.13","true","triclinic",""
"mp-768084","Li8V11O22","P1","-2.464","0.047","0.812","","41","3.85","417.414","true","triclinic",""
"mp-762971","Li2V3O6","C2/m","-2.47","0.048","1.110","","11","3.811","114.452","true","monoclinic",""
"mp-767268","LiV9O22","P21/m","-2.321","0.048","0.077","","64","3.4","798.361","false","monoclinic",""
"mp-850769","Li9V14O35","P2/c","-2.434","0.052","0.467","","116","3.105","1428.662","false","monoclinic",""
"mp-773986","LiV9O22","P21/m","-2.316","0.054","0.004","","64","3.375","804.306","false","monoclinic",""
"mp-542050","LiV6O13","P1","-2.424","0.054","0.632","","40","3.628","476.595","false","triclinic",""
"mp-32491","Li4V3O8","P21/m","-2.463","0.055","1.456","","30","3.526","290.684","true","monoclinic",""
"mp-774176","Li2V12O29","C2/m","-2.342","0.057","0.011","","43","3.419","528.924","true","monoclinic",""
"mp-19013","LiV2O5","Cmcm","-2.408","0.057","0.274","","16","2.984","210.165","true","orthorhombic",""
"mp-762265","Li3V5O10","P1","-2.467","0.059","1.178","","18","3.797","190.448","true","triclinic",""
"mp-762281","Li5V5O12","P1","-2.458","0.061","0.898","","44","3.667","435.935","true","triclinic",""
"mp-704734","Li2V18O39","P1","-2.4","0.062","0.037","","59","3.668","703.928","false","triclinic",""
"mp-567438","Li2V6O13","C2/m","-2.434","0.065","0.000","","21","3.566","245.672","false","monoclinic",""
"mp-776218","LiV2O4","Imma","-2.455","0.067","0.000","","14","3.86","148.699","true","orthorhombic",""
"mp-764906","LiV2O4","P21/m","-2.455","0.068","0.830","","14","3.493","164.307","true","monoclinic",""
"mp-762271","Li2V3O6","C2/m","-2.45","0.068","0.404","","11","3.858","113.073","true","monoclinic",""
"mp-775320","Li4V3O8","R3","-2.45","0.068","1.723","","15","3.369","152.089","true","trigonal",""
"mp-690504","Li3V4O8","R3m","-2.44","0.07","0.000","","15","3.811","153.637","true","trigonal",""
"mp-767752","Li3V5O10","C2/c","-2.456","0.07","0.640","","36","3.822","378.417","true","monoclinic",""
"mp-773375","Li2V3O7","P31c","-2.437","0.071","2.465","","72","3.003","924.735","false","trigonal",""
"mp-627993","LiV2O5","Pnma","-2.394","0.071","0.293","","32","3.103","404.165","true","orthorhombic",""
"mp-762287","Li2V5O10","P1","-2.448","0.071","0.620","","17","3.752","189.702","true","triclinic",""
"mp-771614","LiVO2","Imma","-2.413","0.072","1.370","","16","3.826","156.023","true","orthorhombic",""
"mp-762254","Li3V5O12","P1","-2.425","0.073","1.120","","20","3.609","215.133","true","triclinic",""
"mp-763344","LiV3O8","Cm","-2.288","0.074","1.130","","12","3.223","148.273","true","monoclinic",""
"mp-851075","Li4V5O12","P21/c","-2.436","0.075","0.753","","84","2.965","1062.904","false","monoclinic",""
"mp-777675","Li3V5O12","C2","-2.422","0.076","1.212","","20","3.048","254.692","true","monoclinic",""
"mp-762390","LiV5O10","P1","-2.425","0.08","1.263","","16","3.697","189.391","true","triclinic",""
"mp-18934","LiV2O5","Pmmn","-2.383","0.082","0.002","","16","3.198","196.068","true","orthorhombic",""
"mp-763804","LiV3O8","P3m1","-2.279","0.082","1.346","","12","2.994","159.591","true","trigonal",""
"mp-762268","Li3V2O6","P1","-2.423","0.084","1.302","","11","3.397","106.908","true","triclinic",""
"mp-763200","LiVO3","C2","-2.356","0.084","1.967","","10","3.258","107.928","true","monoclinic",""
"mp-542665","Li3V6O13","Cm","-2.426","0.084","0.608","","22","3.621","245.127","false","monoclinic",""
"mp-762285","Li3V7O12","C2","-2.423","0.085","1.082","","22","4.122","229.378","true","monoclinic",""
"mp-777360","Li13V24O52","P1","-2.428","0.085","0.777","","89","3.612","986.128","false","triclinic",""
"mp-762939","Li5V5O12","P1","-2.434","0.086","0.478","","44","3.587","445.763","true","triclinic",""
"mp-770899","Li2V3O8","P4bm","-2.369","0.086","1.991","","26","2.313","423.118","true","tetragonal",""
"mp-762381","Li4V11O22","P1","-2.429","0.088","0.865","","37","3.693","422.695","true","triclinic",""
"mp-775377","Li3V6O13","P1","-2.421","0.089","0.293","","44","3.632","488.654","true","triclinic",""
"mp-771788","Li4V3O8","R3","-2.424","0.094","0.000","","15","3.563","143.835","true","trigonal",""
"mp-771663","LiV2O4","P2/m","-2.426","0.097","0.427","","7","3.772","76.079","true","monoclinic",""
"mp-770775","Li3V5O14","P31m","-2.3","0.097","2.393","","22","2.545","325.924","true","trigonal",""
"mp-774411","Li2VO2","P3m1","-2.055","0.099","1.912","","5","3.426","46.925","true","trigonal",""
"mp-775044","LiVO3","C2/m","-2.33","0.11","2.087","","10","3.212","109.481","true","monoclinic",""
"mp-768023","LiV3Zn2O8","R3m","-2.295","0.026","0.000","1","14","4.62","150.446","true","trigonal",""
"mp-14495","Li6ZnO4","P42/nmc","-2.045","0","3.512","4","22","2.774","204.817","true","tetragonal",""
"mp-3297","Li10Zn4O9","P42/nmc","-2","0","2.329","","46","3.465","455.347","true","tetragonal",""
"mp-760408","LiZnO2","I41/amd","-1.643","0.081","0.000","","8","4.603","75.284","true","tetragonal",""
"mp-754344","LiZnO2","R3m","-1.642","0.081","0.000","","4","4.591","37.743","true","trigonal",""