"Materials Id","Formula","Spacegroup","Formation Energy (eV)","E Above Hull (eV)","Band Gap (eV)","Count","Nsites","Density (gm/cc)","Volume","Has Bandstructure","Crystal System",""
"mp-765747","Li4TiCr3O8","R3m","-2.517","0.052","0.000","","16","4.036","147.954","true","trigonal",""
"mp-782713","Li3TiCr2O6","C2/m","-2.569","0.058","0.000","","12","4.016","111.084","true","monoclinic",""
"mp-765301","Li4TiCr5O12","P1","-2.455","0.062","0.191","","66","3.727","705.237","false","triclinic",""
"mp-780807","Li2TiCr3O8","P1","-2.503","0.081","0.000","","14","3.835","149.713","true","triclinic",""
"mp-767334","Li2TiCr2O6","Cmce","-2.63","0.081","2.236","","22","3.719","233.74","true","orthorhombic",""
"mp-769990","Li2TiCrO4","P2/m","-2.658","0.083","0.000","","8","3.981","74.141","true","monoclinic",""
"mp-773297","Li3Ti3CrO8","R3m","-2.904","0.083","0.000","","15","3.837","149.052","true","trigonal",""
"mp-773295","Li2TiCrO4","Imma","-2.655","0.085","0.000","","16","3.992","147.854","true","orthorhombic",""
"mp-771562","Li4TiCr5O12","C2/m","-2.431","0.086","0.061","","22","3.784","231.519","true","monoclinic",""
"mp-773302","Li3Ti2CrO6","C2/m","-2.765","0.088","0.000","","12","3.949","111.237","true","monoclinic",""
"mp-765381","Li9Ti7Cr6O30","P3","-2.703","0.092","0.000","","52","3.78","522.558","true","trigonal",""
"mp-868629","Li4Ti4Cr5O18","Pbam","-2.718","0.096","0.000","","62","3.744","680.598","true","orthorhombic",""
"mp-773275","Li4Ti3CrO8","R3m","-2.801","0.106","0.000","","16","3.939","148.113","true","trigonal",""
"mp-780243","Li5Ti2Cu3O10","P1","-2.222","0.057","0.192","7","20","4.145","192.714","true","triclinic",""
"mp-772309","Li3Ti(CuO2)4","C2/m","-1.778","0.067","0.000","","16","4.82","155.332","true","monoclinic",""
"mp-849652","Li3Ti2Cu3O10","P1","-2.053","0.09","0.020","","18","4.119","188.361","false","triclinic",""
"mp-754664","Li2TiCuO4","Imma","-2.392","0.092","0.000","","16","4.092","153.625","true","orthorhombic",""
"mp-770793","Li5Ti2Cu5O12","C2","-1.96","0.098","0.000","","24","4.645","228.861","true","monoclinic",""
"mp-757583","Li2TiCuO4","I4m2","-2.383","0.101","0.000","","8","4.227","74.364","true","tetragonal",""
"mp-774874","Li3Ti2CuO6","C2/m","-2.662","0.105","0.215","","12","4.031","113.751","true","monoclinic",""
"mp-769637","Li5Ti6FeO16","P21","-3.1","0","2.696","47","56","3.503","600.774","true","monoclinic",""
"mp-775306","Li2Ti3FeO8","R32","-3.044","0.004","1.946","","56","3.672","617.43","true","trigonal",""
"mp-774059","Li7Ti12Fe5O32","R3","-3.006","0.007","0.000","","56","3.798","618.235","true","trigonal",""
"mp-765709","Li5Ti2Fe3O10","P1","-2.528","0.018","1.463","","20","3.994","190.399","true","triclinic",""
"mp-774090","LiTiFeO4","Imma","-2.698","0.018","1.331","","14","3.793","152.94","true","orthorhombic",""
"mp-771453","Li5Ti2Fe5O12","C2","-2.381","0.019","1.524","","24","4.298","232.441","true","monoclinic",""
"mp-775060","LiTiFeO4","P4322","-2.69","0.026","2.061","","28","3.878","299.11","true","tetragonal",""
"mp-775791","Li2TiFe2O5","P1","-2.438","0.027","1.460","","20","4.364","192.878","true","triclinic",""
"mp-777591","Li4Ti5Fe3O16","Cm","-2.852","0.029","1.195","","28","3.859","297.164","true","monoclinic",""
"mp-850231","Li2TiFe3O8","R3m","-2.264","0.029","0.000","","14","3.916","151.519","true","trigonal",""
"mp-769962","Li4TiFe3O8","C2/m","-2.34","0.03","0.628","","16","4.047","152.29","true","monoclinic",""
"mp-771201","Li3Ti(FeO2)4","C2/m","-2.235","0.033","0.796","","16","4.472","155.982","true","monoclinic",""
"mp-775518","Li5Ti6FeO16","Pm","-3.066","0.034","2.195","","28","3.499","300.731","true","monoclinic",""
"mp-778277","Li2Ti3FeO8","P63mc","-3.013","0.035","1.326","","28","3.752","302.158","true","hexagonal",""
"mp-769463","Li11Ti8Fe5O32","P1","-2.629","0.035","0.234","","56","3.497","593.85","true","triclinic",""
"mp-762758","Li4Ti2Fe3O10","P1","-2.532","0.036","1.449","","38","3.92","382.082","true","triclinic",""
"mp-770739","LiTiFeO4","Pnma","-2.678","0.038","2.196","","28","3.727","311.223","true","orthorhombic",""
"mp-769653","Li2TiFe2O5","P1","-2.426","0.038","1.474","","20","4.401","191.261","true","triclinic",""
"mp-772368","Li2TiFe3O8","P63mc","-2.255","0.039","0.000","","28","4.06","292.229","true","hexagonal",""
"mp-769660","Li2TiFe2O5","C2/c","-2.425","0.039","1.636","","20","4.448","189.241","true","monoclinic",""
"mp-762689","Li4Ti2Fe5O12","P21","-2.372","0.04","1.503","","46","4.291","460.251","true","monoclinic",""
"mp-765697","Li2TiFeO4","Imm2","-2.621","0.042","0.912","","16","3.909","154.266","true","orthorhombic",""
"mp-772244","Li2TiFeO4","P2/m","-2.621","0.043","0.830","","8","3.895","77.423","true","monoclinic",""
"mp-769658","Li2TiFeO4","Cc","-2.619","0.045","0.856","","16","3.924","153.706","true","monoclinic",""
"mp-764006","Li3TiFe3O8","P63mc","-2.335","0.045","1.821","","30","4.146","291.73","true","hexagonal",""
"mp-769966","Li3TiFe3O8","R3m","-2.334","0.047","1.839","","15","3.939","153.551","true","trigonal",""
"mp-868572","Li6TiFe5O12","C2","-2.224","0.048","1.581","","24","3.998","232.917","true","monoclinic",""
"mp-762694","Li3Ti2Fe3O10","P1","-2.526","0.053","1.644","","18","3.851","191.468","true","triclinic",""
"mp-775407","Li3Ti(FeO3)2","C2/m","-2.413","0.055","0.000","","12","4.016","114.287","true","monoclinic",""
"mp-769662","Li2TiFe2O5","P1","-2.409","0.055","1.311","","20","4.453","189.024","true","triclinic",""
"mp-771347","Li11Ti4Fe9O32","P1","-2.177","0.057","0.019","","56","3.592","592.864","false","triclinic",""
"mp-762702","Li3Ti2(FeO4)2","P1","-2.634","0.06","0.000","","15","3.844","153.879","true","triclinic",""
"mp-776147","Li2TiFe3O8","P21","-2.233","0.06","0.004","","56","3.961","599.064","true","monoclinic",""
"mp-769668","Li2TiFe2O5","P1","-2.403","0.062","1.240","","20","4.363","192.893","true","triclinic",""
"mp-762684","Li2Ti(FeO3)2","C2/m","-2.425","0.066","1.793","","33","3.888","345.209","true","monoclinic",""
"mp-762709","LiTiFe2O5","P1","-2.424","0.07","1.501","","18","4.247","192.767","true","triclinic",""
"mp-762700","Li2Ti2Fe3O10","P1","-2.444","0.072","0.233","","17","3.753","193.428","false","triclinic",""
"mp-762695","Li4Ti3(FeO4)3","P1","-2.624","0.078","0.070","","22","3.818","230.905","false","triclinic",""
"mp-770018","Li2Ti3FeO8","R3m","-2.969","0.078","0.000","","14","3.78","149.954","true","trigonal",""
"mp-774337","Li3Ti2FeO6","C2/m","-2.75","0.082","0.000","","12","3.89","114.566","true","monoclinic",""
"mp-762693","Li3TiFe3O8","P1","-2.297","0.083","2.111","","30","3.175","381.003","true","triclinic",""
"mp-769659","Li2TiFeO4","P1","-2.58","0.084","0.000","","16","3.968","151.978","true","triclinic",""
"mp-763753","Li2Ti2FeO6","Cmce","-2.829","0.084","1.974","","22","3.494","248.522","true","orthorhombic",""
"mp-762701","LiTiFeO4","Imma","-2.624","0.092","1.739","","14","3.799","152.689","false","orthorhombic",""
"mp-770656","Li4TiFe5O12","C2/m","-2.087","0.128","0.335","","22","3.847","236.038","true","monoclinic",""
"mp-771498","Li4Ti3Fe5O16","P1","-2.361","0.145","0.093","","28","4.097","286.368","false","triclinic",""
"mp-775530","Li2Ti3FeO8","R3m","-2.897","0.15","0.000","","14","3.832","147.917","true","trigonal",""
"mp-774752","Li2MgTi3O8","P213","-3.254","0","3.292","5","56","3.41","603.426","true","cubic",""
"mp-773055","Li3Mg3Ti6O16","P21","-3.257","0.014","0.000","","56","3.475","608.675","true","monoclinic",""
"mp-758770","Li2Mg3Ti6O16","P21","-3.32","0.015","3.313","","54","3.433","609.464","true","monoclinic",""
"mp-772783","Li2Mg3Ti6O16","P21","-3.318","0.017","3.288","","54","3.44","608.186","true","monoclinic",""
"mp-767086","Li5MgTi12O24","P3m1","-3.237","0.021","0.000","","42","3.678","459.301","true","trigonal",""
"mp-868601","Li4Ti2Mn3Co3O16","P1","-2.211","0.038","0.280","7","28","4.371","273.966","true","triclinic",""
"mp-770518","Li4Ti3Mn3(CoO8)2","P1","-2.423","0.061","0.755","","28","4.044","291.582","true","triclinic",""
"mp-763307","Li4Ti3Mn2Co3O16","Cm","-2.355","0.067","0.234","","28","4.304","275.502","true","monoclinic",""
"mp-775615","Li4Ti3Mn4(CoO9)2","Pmc21","-2.354","0.074","0.010","","62","4.074","649.701","false","orthorhombic",""
"mp-775678","Li4Ti4Mn4CoO18","Pbam","-2.557","0.077","0.067","","62","3.892","670.588","false","orthorhombic",""
"mp-769441","Li4Ti4Mn(Co2O9)2","Pbam","-2.384","0.087","0.120","","62","4.128","641.858","true","orthorhombic",""
"mp-779764","Li10Ti2Mn3Co3O16","P1","-2.207","0.094","0.347","","34","4.057","312.228","false","triclinic",""
"mp-770495","Li4Ti2Mn3Fe3O16","P1","-2.349","0.033","0.663","9","28","4.097","288.478","true","triclinic",""
"mp-770508","Li4Ti3Mn3(FeO8)2","P1","-2.525","0.043","0.433","","28","3.988","293.06","true","triclinic",""
"mp-770371","Li4Ti3Mn2Fe3O16","Cm","-2.501","0.054","0.646","","28","3.982","293.891","true","monoclinic",""
"mp-775551","Li4Ti3Mn4(FeO9)2","Pmc21","-2.432","0.073","0.031","","62","3.836","684.679","true","orthorhombic",""
"mp-769444","Li4Ti2Mn3(Fe2O9)2","Pbam","-2.244","0.077","0.118","","62","3.95","672.431","false","orthorhombic",""
"mp-775503","Li4Ti4Mn4FeO18","Pbam","-2.593","0.079","0.033","","62","3.793","685.502","false","orthorhombic",""
"mp-769443","Li4Ti4Mn(Fe2O9)2","Pbam","-2.555","0.082","1.026","","62","3.789","688.449","true","orthorhombic",""
"mp-775352","Li4Ti2Mn4(FeO6)3","Pbam","-2.243","0.093","0.000","","62","3.953","671.101","true","orthorhombic",""
"mp-769429","Li4TiMn4(Fe2O9)2","Pmc21","-1.997","0.166","0.043","","62","4.154","644.986","false","orthorhombic",""
"mp-767719","Li4Ti2Mn3Ni3O16","Cm","-2.074","0.045","0.015","5","28","4.286","279.084","true","monoclinic",""
"mp-770507","Li4Ti3Mn3(NiO8)2","Cm","-2.363","0.062","1.106","","28","4.112","286.564","true","monoclinic",""
"mp-771397","Li4Ti3Mn2Ni3O16","Cm","-2.221","0.067","0.249","","28","4.231","279.982","true","monoclinic",""
"mp-769448","Li4Ti4Mn4NiO18","Pbam","-2.538","0.072","0.009","","62","3.848","678.154","false","orthorhombic",""
"mp-777713","Li10Ti2Mn3Ni3O16","P1","-2.143","0.126","0.429","","34","4.144","305.373","true","triclinic",""
"mp-775865","Li2Ti3MnO8","P213","-3.106","0","2.370","53","56","3.647","619.918","true","cubic",""
"mp-778500","Li5TiMn9O20","P1","-2.198","0.013","0.047","","70","3.981","748.384","false","triclinic",""
"mp-775166","Li2TiMn3O8","P1","-2.404","0.014","0.738","","56","3.891","605.251","true","triclinic",""
"mp-771355","Li5Ti2Mn8O20","C2/m","-2.332","0.017","0.019","","70","3.921","753.824","true","monoclinic",""
"mp-764051","Li5Ti2Mn3O10","P1","-2.608","0.02","1.121","","20","3.857","196.016","false","triclinic",""
"mp-775392","Li2Ti3MnO8","P4332","-3.082","0.024","1.751","","56","3.602","627.779","true","cubic",""
"mp-771575","Li2TiMn3O8","Cmc21","-2.392","0.025","0.728","","28","4.04","291.471","true","orthorhombic",""
"mp-853187","LiTiMnO4","Imma","-2.73","0.032","0.022","","14","3.765","153.272","true","orthorhombic",""
"mp-777480","Li2Ti3MnO8","P63mc","-3.073","0.033","1.442","","28","3.681","307.137","true","hexagonal",""
"mp-771056","Li7Ti5Mn12O32","P1","-2.47","0.034","0.000","","56","3.921","617.987","false","triclinic",""
"mp-771552","Li5Ti2Mn5O12","C2","-2.485","0.04","0.114","","24","4.115","240.959","true","monoclinic",""
"mp-773545","Li4Ti3Mn5O16","Cm","-2.55","0.04","0.292","","28","3.942","295.707","true","monoclinic",""
"mp-777417","Li4Ti5Mn3O16","Cm","-2.894","0.04","0.400","","28","3.79","301.427","true","monoclinic",""
"mp-764078","Li4TiMn3O8","P1","-2.41","0.042","0.483","","48","3.917","468.613","true","triclinic",""
"mp-771753","Li2Ti3MnO8","R3m","-3.06","0.046","0.623","","14","3.592","157.353","true","trigonal",""
"mp-766150","Li4Ti2Mn3O10","P1","-2.606","0.046","0.494","","19","3.787","196.584","true","triclinic",""
"mp-762872","Li3Ti2Mn3O10","P1","-2.589","0.047","0.901","","18","3.8","192.882","true","triclinic",""
"mp-763669","Li4Ti2Mn3O10","P1","-2.605","0.047","0.858","","38","3.81","390.774","true","triclinic",""
"mp-771683","Li2TiMn3O8","R3m","-2.364","0.053","0.000","","14","3.918","150.259","true","trigonal",""
"mp-765997","Li11Ti4Mn12O32","C2","-2.394","0.053","0.004","","59","3.887","614.71","false","monoclinic",""
"mp-763628","Li3TiMn3O8","P1","-2.399","0.056","1.144","","45","3.881","464.064","true","triclinic",""
"mp-770956","Li2TiMn2O5","C2","-2.541","0.056","0.648","","20","4.11","203.335","true","monoclinic",""
"mp-771440","Li3TiMn4O8","C2/m","-2.356","0.057","0.000","","16","4.228","163.55","false","monoclinic",""
"mp-769512","Li4Ti4Mn5O18","Pbam","-2.619","0.061","0.011","","62","3.725","697.085","false","orthorhombic",""
"mp-769513","Li4Ti3Mn6O18","Pmc21","-2.461","0.063","0.020","","62","3.842","682.058","false","orthorhombic",""
"mp-769924","Li3TiMn3O8","P1","-2.39","0.064","1.053","","15","3.874","154.969","true","triclinic",""
"mp-782698","Li2TiMnO4","I4m2","-2.682","0.065","0.000","","8","3.822","78.496","true","tetragonal",""
"mp-762814","Li4Ti2Mn5O12","P21","-2.473","0.065","0.413","","46","4.105","477.519","false","monoclinic",""
"mp-765898","Li3TiMn3O8","Cc","-2.388","0.066","0.969","","30","4.089","293.628","true","monoclinic",""
"mp-770961","Li2TiMn2O5","C2","-2.53","0.068","0.673","","20","4.144","201.652","true","monoclinic",""
"mp-762163","Li3TiMn2O6","C2/m","-2.482","0.068","0.000","","12","3.856","118.251","true","monoclinic",""
"mp-767917","Li4Ti5Mn4O18","Pbam","-2.767","0.068","0.090","","62","3.668","701.527","false","orthorhombic",""
"mp-771928","Li3Ti4MnO12","P1","-2.887","0.068","0.000","","20","3.745","203.612","true","triclinic",""
"mp-769509","Li4TiMn8O18","Pmc21","-2.144","0.069","0.001","","62","4.011","664.906","false","orthorhombic",""
"mp-768002","LiTi2Mn3O10","P1","-2.5","0.07","1.468","","16","3.795","187.034","true","triclinic",""
"mp-762811","Li2Ti2Mn3O10","P1","-2.54","0.071","0.000","","17","3.839","187.912","true","triclinic",""
"mp-773340","Li2TiMnO4","P2/m","-2.675","0.072","0.390","","8","3.797","79.01","true","monoclinic",""
"mp-769508","Li4Ti2Mn7O18","Pbam","-2.297","0.072","0.010","","62","3.962","667.273","false","orthorhombic",""
"mp-762614","Li2TiMn3O8","P1","-2.346","0.072","0.957","","42","3.806","464.069","true","triclinic",""
"mp-775115","Li2TiMnO4","Imma","-2.675","0.072","0.303","","16","3.768","159.261","true","orthorhombic",""
"mp-776053","Li2TiMn2O6","Cmce","-2.477","0.078","1.557","","22","3.673","241.963","true","orthorhombic",""
"mp-771528","Li3Ti2MnO6","C2/m","-2.785","0.08","0.000","","12","3.811","116.556","true","monoclinic",""
"mp-763830","Li3Ti2Mn5O12","P1","-2.461","0.086","0.596","","66","4.091","710.126","true","triclinic",""
"mp-767679","Li8TiMn3O12","P2","-2.3","0.088","1.307","","24","3.678","207.785","true","monoclinic",""
"mp-771102","Li4Ti3MnO8","R3m","-2.823","0.088","0.000","","16","3.834","153.465","true","trigonal",""
"mp-764165","Li2TiMn2O6","P21/c","-2.467","0.088","1.132","","66","3.65","730.461","false","monoclinic",""
"mp-763664","LiTiMn3O8","P1","-2.262","0.089","0.601","","39","3.809","454.62","true","triclinic",""
"mp-775623","LiTiMnO4","P4322","-2.669","0.092","0.555","","28","4.01","287.783","true","tetragonal",""
"mp-762569","Li2Ti2Mn5O12","P21","-2.439","0.092","0.803","","42","4.066","470.742","false","monoclinic",""
"mp-773922","Li8Ti6Mn7O30","P3","-2.511","0.093","0.913","","51","3.9","514.024","true","trigonal",""
"mp-770920","Li4TiMn5O12","C2/m","-2.239","0.095","0.377","","22","3.763","239.309","true","monoclinic",""
"mp-771622","Li4TiMn3O8","P1","-2.355","0.097","0.216","","16","3.199","191.234","true","triclinic",""
"mp-765769","Li10Ti3Mn5O16","P1","-2.452","0.104","0.863","","34","3.715","332.436","true","triclinic",""
"mp-775326","Li2Ti3NiO8","P4332","-2.931","0","2.707","30","56","3.827","597.288","true","cubic",""
"mp-771224","Li5Ti2Ni3O10","P1","-2.244","0.014","0.552","","20","4.278","181.095","false","triclinic",""
"mp-763974","Li8TiNi7O16","P1","-1.635","0.014","0.000","","32","4.596","278.281","false","triclinic",""
"mp-772130","Li2Ti3NiO8","R3m","-2.916","0.016","1.722","","14","3.806","150.153","true","trigonal",""
"mp-775448","Li2Ti3NiO8","P213","-2.91","0.021","2.827","","56","3.799","601.808","true","cubic",""
"mp-771100","Li3Ti(NiO2)4","C2/m","-1.794","0.023","0.000","","16","4.926","145.45","true","monoclinic",""
"mp-770539","Li5Ti2Ni5O12","C2","-2.008","0.03","0.123","","24","4.72","216.673","true","monoclinic",""
"mp-775328","Li2TiNi3O8","P212121","-1.672","0.031","0.665","","56","4.426","548.953","true","orthorhombic",""
"mp-771719","Li4TiNi3O8","R3m","-1.893","0.034","0.000","","16","4.477","140.846","true","trigonal",""
"mp-770852","Li2TiNi2O5","C2","-2.137","0.034","2.037","","20","4.752","181.12","true","monoclinic",""
"mp-764019","Li2TiNiO4","Imma","-2.445","0.035","1.602","","16","4.17","146.886","true","orthorhombic",""
"mp-771465","Li4Ti5Ni3O16","Cm","-2.59","0.036","0.371","","28","4.062","285.829","true","monoclinic",""
"mp-777076","Li2TiNiO4","P2/m","-2.443","0.037","1.643","","8","4.207","72.8","true","monoclinic",""
"mp-763686","Li6TiNi7O16","P1","-1.495","0.039","0.296","","30","4.539","276.681","true","triclinic",""
"mp-763760","Li3TiNi3O8","C2/m","-1.791","0.039","0.000","","15","4.35","142.306","true","monoclinic",""
"mp-774353","Li3Ti(NiO3)2","C2/m","-2.069","0.042","0.000","","12","4.346","107.78","true","monoclinic",""
"mp-775519","Li2Ti3NiO8","P63mc","-2.889","0.043","2.130","","28","3.862","295.983","true","hexagonal",""
"mp-770851","Li2TiNi2O5","C2","-2.124","0.047","2.110","","20","4.775","180.215","true","monoclinic",""
"mp-773607","LiTiNiO4","Imma","-2.272","0.048","0.000","","14","4.115","143.27","true","orthorhombic",""
"mp-776671","Li2TiNi2O5","C2/c","-2.123","0.048","2.123","","20","4.796","179.457","true","monoclinic",""
"mp-762815","Li4Ti2Ni5O12","P21","-1.925","0.051","0.210","","46","4.682","431.969","true","monoclinic",""
"mp-762924","Li4Ti2Ni3O10","P1","-2.143","0.053","0.041","","38","4.264","357.92","false","triclinic",""
"mp-776015","Li2Ti3NiO8","R3m","-2.877","0.055","2.280","","14","3.817","149.709","true","trigonal",""
"mp-765494","Li3Ti2(NiO4)2","C2/m","-2.348","0.059","0.550","","15","4.177","143.902","true","monoclinic",""
"mp-762559","Li2Ti(NiO3)2","C2/m","-1.923","0.064","0.480","","33","4.242","323.077","false","monoclinic",""
"mp-762556","Li4Ti3(NiO4)3","C2","-2.309","0.07","0.051","","22","4.168","214.907","false","monoclinic",""
"mp-763633","Li3Ti2(NiO4)2","C2/m","-2.332","0.075","0.000","","15","4.114","146.083","true","monoclinic",""
"mp-849444","Li2Ti2NiO6","Cmce","-2.681","0.086","2.843","","22","3.688","238.03","true","orthorhombic",""
"mp-765649","Li11Ti12(NiO8)4","R32","-2.83","0.091","0.033","","59","3.881","598.002","true","trigonal",""
"mp-772066","Li3Ti2NiO6","C2/m","-2.626","0.139","0.000","","12","4.09","110.138","true","monoclinic",""
"mp-9172","Li4TiO4","Cmcm","-2.719","0","4.557","92","18","2.498","185.667","true","orthorhombic",""
"mp-2931","Li2TiO3","C2/c","-2.995","0","3.034","","24","3.336","218.496","true","monoclinic",""
"mp-38280","LiTiO2","I41/amd","-2.993","0","0.000","","8","4.076","70.721","true","tetragonal",""
"mp-5670","LiTi2O4","Fd3m","-3.26","0","0.000","","14","3.65","151.671","true","cubic",""
"mp-685194","Li4Ti5O12","C2/c","-3.22","0","2.670","","42","3.384","450.584","true","monoclinic",""
"mp-766823","Li7Ti11O24","C2/m","-3.243","0","0.000","","42","3.514","453.191","true","monoclinic",""
"mp-766393","Li7Ti11O24","C2/m","-3.242","0.001","0.000","","42","3.505","454.426","true","monoclinic",""
"mp-772521","Li8TiO6","P63cm","-2.456","0.004","3.992","","30","2.229","297.038","true","hexagonal",""
"mp-768114","Li6Ti9O20","C2/m","-3.233","0.006","0.000","","70","3.481","755.935","true","monoclinic",""
"mp-774263","Li13Ti28O56","R3","-3.27","0.006","0.000","","97","3.64","1061.337","true","trigonal",""
"mp-530165","Li13Ti22O48","Cm","-3.253","0.008","0.000","","83","3.512","903.778","true","monoclinic",""